* GENERATED BY CHARMM-GUI (HTTP://WWW.CHARMM-GUI.ORG) V3.7 ON OCT, 22. 2024. JOB
* INPUT GENERATION
*  DATE:    10/22/24     11:46:42      CREATED BY USER: apache
*
     42794  EXT
         1         1  SAPS      N               2.1155663574        0.5339087734       19.8425073311  MEMB      1               0.0000000000
         2         1  SAPS      HN1             2.3730439322        1.3129178912       20.4825370302  MEMB      1               0.0000000000
         3         1  SAPS      HN2             2.7394145482        0.4956837213       19.0076981893  MEMB      1               0.0000000000
         4         1  SAPS      HN3             1.0981886158        0.6160126700       19.6240147690  MEMB      1               0.0000000000
         5         1  SAPS      C12             2.2276142242       -0.7217210624       20.6396575848  MEMB      1               0.0000000000
         6         1  SAPS      H12A            3.2003137245       -0.6823570143       21.1071744719  MEMB      1               0.0000000000
         7         1  SAPS      C13             1.1350345147       -0.8058111479       21.7398388978  MEMB      1               0.0000000000
         8         1  SAPS      O13A            0.3185980917        0.1401681217       21.8601284756  MEMB      1               0.0000000000
         9         1  SAPS      O13B            0.9041452772       -1.9396790382       22.2376702697  MEMB      1               0.0000000000
        10         1  SAPS      C11             2.0818145160       -2.0028878672       19.7605106984  MEMB      1               0.0000000000
        11         1  SAPS      H11A            1.0840316831       -1.9890114927       19.2798660981  MEMB      1               0.0000000000
        12         1  SAPS      H11B            2.1286136646       -2.9062670924       20.4189199804  MEMB      1               0.0000000000
        13         1  SAPS      P               4.4008088924       -2.8784014469       18.9195844974  MEMB      1               0.0000000000
        14         1  SAPS      O13             5.3868038493       -1.9417703093       19.4576926247  MEMB      1               0.0000000000
        15         1  SAPS      O14             4.1295124396       -4.1576312650       19.6228245358  MEMB      1               0.0000000000
        16         1  SAPS      O12             3.0356977130       -2.0822289673       18.7220865660  MEMB      1               0.0000000000
        17         1  SAPS      O11             4.6820802574       -3.1347724112       17.4347577246  MEMB      1               0.0000000000
        18         1  SAPS      C1              4.6091430356       -4.3519014997       16.7560484562  MEMB      1               0.0000000000
        19         1  SAPS      HA              5.3900813255       -5.0741257436       17.0481233519  MEMB      1               0.0000000000
        20         1  SAPS      HB              3.6054378756       -4.8272721818       16.8810815909  MEMB      1               0.0000000000
        21         1  SAPS      C2              4.9049154398       -3.9682384677       15.3521697017  MEMB      1               0.0000000000
        22         1  SAPS      HS              5.8921455986       -3.5613740053       15.0763519936  MEMB      1               0.0000000000
        23         1  SAPS      O21             3.7677562019       -3.0806700202       15.0433026858  MEMB      1               0.0000000000
        24         1  SAPS      C21             4.1323932039       -1.9091830255       14.5238707770  MEMB      1               0.0000000000
        25         1  SAPS      O22             5.2844002576       -1.5424090321       14.3758577843  MEMB      1               0.0000000000
        26         1  SAPS      C22             2.9657161404       -1.0735733458       13.9718403772  MEMB      1               0.0000000000
        27         1  SAPS      H2R             2.5768958681       -0.4905589287       14.8215667134  MEMB      1               0.0000000000
        28         1  SAPS      H2S             3.4175700037       -0.3660794289       13.2392999916  MEMB      1               0.0000000000
        29         1  SAPS      C3              5.0372929085       -5.2847285933       14.5547784211  MEMB      1               0.0000000000
        30         1  SAPS      HX              4.1270258156       -5.8352530480       14.6610249405  MEMB      1               0.0000000000
        31         1  SAPS      HY              5.5484226336       -6.1703123565       14.9729733384  MEMB      1               0.0000000000
        32         1  SAPS      O31             5.5878082277       -5.0545666825       13.2213707844  MEMB      1               0.0000000000
        33         1  SAPS      C31             4.7812099789       -4.2809982582       12.5136107344  MEMB      1               0.0000000000
        34         1  SAPS      O32             3.6712193779       -3.9767423774       12.9256169058  MEMB      1               0.0000000000
        35         1  SAPS      C32             5.3001438969       -4.3366447332       10.9693590592  MEMB      1               0.0000000000
        36         1  SAPS      H2X             5.4227685702       -5.4023235017       10.6588319903  MEMB      1               0.0000000000
        37         1  SAPS      H2Y             6.3522881326       -4.1406442610       11.0000867703  MEMB      1               0.0000000000
        38         1  SAPS      C23             1.8319195170       -1.8223279366       13.2344055489  MEMB      1               0.0000000000
        39         1  SAPS      H3R             1.4630945444       -2.6674376751       13.8585700076  MEMB      1               0.0000000000
        40         1  SAPS      H3S             2.2348407921       -2.2605240367       12.2944490524  MEMB      1               0.0000000000
        41         1  SAPS      C24             0.6311482054       -0.9188578906       12.9238605838  MEMB      1               0.0000000000
        42         1  SAPS      H4R             0.1452921209       -0.6695487985       13.8923824211  MEMB      1               0.0000000000
        43         1  SAPS      H4S            -0.1053010497       -1.5405172362       12.3708331322  MEMB      1               0.0000000000
        44         1  SAPS      C25             0.9349538587        0.3685915782       12.1978227670  MEMB      1               0.0000000000
        45         1  SAPS      H5R             0.9996336839        1.2443531363       12.8656308100  MEMB      1               0.0000000000
        46         1  SAPS      C26             1.3533074850        0.5256745082       10.9261761744  MEMB      1               0.0000000000
        47         1  SAPS      H6R             1.4689096973        1.5337271076       10.5374123260  MEMB      1               0.0000000000
        48         1  SAPS      C27             1.6460332643       -0.4936735955        9.8595812735  MEMB      1               0.0000000000
        49         1  SAPS      H7R             1.0827283078       -1.4393150619       10.0073801075  MEMB      1               0.0000000000
        50         1  SAPS      H7S             2.7258528853       -0.7317296681        9.9561992741  MEMB      1               0.0000000000
        51         1  SAPS      C28             1.4670261997       -0.0313747835        8.4345020320  MEMB      1               0.0000000000
        52         1  SAPS      H8R             0.6006484509       -0.4346991992        7.9039513271  MEMB      1               0.0000000000
        53         1  SAPS      C29             2.3015761051        0.7227172246        7.6964900582  MEMB      1               0.0000000000
        54         1  SAPS      H9R             1.8589034565        1.1012228081        6.7584356925  MEMB      1               0.0000000000
        55         1  SAPS      C210            3.6467954742        1.3233829706        8.1214225714  MEMB      1               0.0000000000
        56         1  SAPS      H10R            4.2819220403        0.7855937846        8.8112520059  MEMB      1               0.0000000000
        57         1  SAPS      H10S            3.0927520905        1.8328639374        8.9048317341  MEMB      1               0.0000000000
        58         1  SAPS      C211            4.5909323476        2.2052142887        7.2480889094  MEMB      1               0.0000000000
        59         1  SAPS      H11R            4.5687428130        3.3148034083        7.3081437951  MEMB      1               0.0000000000
        60         1  SAPS      C212            5.1763485728        1.8308994829        6.1336646095  MEMB      1               0.0000000000
        61         1  SAPS      H12R            5.1993494897        2.6416385711        5.3659790344  MEMB      1               0.0000000000
        62         1  SAPS      C213            5.0264640480        0.4494458761        5.5910772626  MEMB      1               0.0000000000
        63         1  SAPS      H13R            4.8614618871       -0.2323909045        6.4424767915  MEMB      1               0.0000000000
        64         1  SAPS      H13S            6.0481671021        0.3611356776        5.2582817709  MEMB      1               0.0000000000
        65         1  SAPS      C214            4.0576889315       -0.0183412061        4.5254061958  MEMB      1               0.0000000000
        66         1  SAPS      H14R            3.0322718239        0.0171090017        4.8303014455  MEMB      1               0.0000000000
        67         1  SAPS      C215            4.1734481920       -0.5411650459        3.3127931657  MEMB      1               0.0000000000
        68         1  SAPS      H15R            3.4232656485       -0.4887476967        2.5178970253  MEMB      1               0.0000000000
        69         1  SAPS      C216            5.3976122976       -0.7957905676        2.7162844114  MEMB      1               0.0000000000
        70         1  SAPS      H16R            5.5040332077       -1.8148960707        2.2665681926  MEMB      1               0.0000000000
        71         1  SAPS      H16S            6.1378755069       -0.6463323953        3.5329043880  MEMB      1               0.0000000000
        72         1  SAPS      C217            5.3470172190        0.3516975735        1.7387450424  MEMB      1               0.0000000000
        73         1  SAPS      H17R            6.1979559554       -0.3531691695        1.5451745804  MEMB      1               0.0000000000
        74         1  SAPS      H17S            5.6785605063        1.3640453319        2.0536159350  MEMB      1               0.0000000000
        75         1  SAPS      C218            4.8154604719        0.5999172764        0.3287186008  MEMB      1               0.0000000000
        76         1  SAPS      H18R            5.2995079131        1.2517149773       -0.4646387945  MEMB      1               0.0000000000
        77         1  SAPS      H18S            4.0139313134        1.3131502654        0.5670095019  MEMB      1               0.0000000000
        78         1  SAPS      C219            4.8079948116       -0.7126463105       -0.3642402822  MEMB      1               0.0000000000
        79         1  SAPS      H19R            4.1201772706       -1.2986720725        0.2862539829  MEMB      1               0.0000000000
        80         1  SAPS      H19S            5.7225862810       -1.3184862390       -0.5199639080  MEMB      1               0.0000000000
        81         1  SAPS      C220            4.4467815607       -0.4600577464       -1.7734922578  MEMB      1               0.0000000000
        82         1  SAPS      H20R            4.0674153246       -1.4676968729       -2.0764936831  MEMB      1               0.0000000000
        83         1  SAPS      H20S            5.0975283140       -0.0688825084       -2.5552963410  MEMB      1               0.0000000000
        84         1  SAPS      H20T            3.6987295238        0.3684658133       -1.6277179800  MEMB      1               0.0000000000
        85         1  SAPS      C33             4.3642234180       -3.6186721338        9.8925893126  MEMB      1               0.0000000000
        86         1  SAPS      H3X             4.0369266839       -2.7512942884       10.4456594141  MEMB      1               0.0000000000
        87         1  SAPS      H3Y             3.4012962419       -4.0431788079        9.5704499757  MEMB      1               0.0000000000
        88         1  SAPS      C34             4.8165433780       -3.2188708586        8.4951500996  MEMB      1               0.0000000000
        89         1  SAPS      H4X             5.7530682641       -2.6800249832        8.5648436596  MEMB      1               0.0000000000
        90         1  SAPS      H4Y             3.9554782686       -2.7870900585        7.8998889740  MEMB      1               0.0000000000
        91         1  SAPS      C35             5.1246012469       -4.4191941371        7.7558166967  MEMB      1               0.0000000000
        92         1  SAPS      H5X             4.0865693020       -4.8478079642        7.8064236149  MEMB      1               0.0000000000
        93         1  SAPS      H5Y             5.8802788203       -4.9421955108        8.3927213060  MEMB      1               0.0000000000
        94         1  SAPS      C36             5.8120718561       -4.4550302835        6.4004305929  MEMB      1               0.0000000000
        95         1  SAPS      H6X             5.8728156438       -5.4026728379        5.8424862107  MEMB      1               0.0000000000
        96         1  SAPS      H6Y             6.8738155434       -4.3669814558        6.6881969360  MEMB      1               0.0000000000
        97         1  SAPS      C37             5.2882047099       -3.4355425723        5.4469008918  MEMB      1               0.0000000000
        98         1  SAPS      H7X             6.1513168070       -3.3732424844        4.7537054342  MEMB      1               0.0000000000
        99         1  SAPS      H7Y             5.2061912989       -2.5125615858        6.0450798702  MEMB      1               0.0000000000
       100         1  SAPS      C38             3.9985831845       -3.7848393086        4.6574705022  MEMB      1               0.0000000000
       101         1  SAPS      H8X             4.0342824566       -4.8462208728        4.3415157987  MEMB      1               0.0000000000
       102         1  SAPS      H8Y             4.0473958826       -3.2050304312        3.7110692727  MEMB      1               0.0000000000
       103         1  SAPS      C39             2.6618969319       -3.4305317734        5.3712040398  MEMB      1               0.0000000000
       104         1  SAPS      H9X             2.7218856273       -2.3639873698        5.6608586122  MEMB      1               0.0000000000
       105         1  SAPS      H9Y             2.5144583942       -4.0115557964        6.3065850356  MEMB      1               0.0000000000
       106         1  SAPS      C310            1.3891558946       -3.5608270998        4.5143613127  MEMB      1               0.0000000000
       107         1  SAPS      H10X            1.2149688878       -4.6442665166        4.3389734106  MEMB      1               0.0000000000
       108         1  SAPS      H10Y            1.5963415338       -3.0730369112        3.5355851501  MEMB      1               0.0000000000
       109         1  SAPS      C311            0.1442777087       -2.9016879309        5.1524125901  MEMB      1               0.0000000000
       110         1  SAPS      H11X            0.3389699336       -1.8237472069        5.3457213749  MEMB      1               0.0000000000
       111         1  SAPS      H11Y           -0.1048592434       -3.3573628173        6.1370112046  MEMB      1               0.0000000000
       112         1  SAPS      C312           -1.1425263540       -3.0311865458        4.3357514898  MEMB      1               0.0000000000
       113         1  SAPS      H12X           -1.9439325362       -2.6020760547        4.9855033792  MEMB      1               0.0000000000
       114         1  SAPS      H12Y           -1.3807020731       -4.1098441724        4.1878978841  MEMB      1               0.0000000000
       115         1  SAPS      C313           -1.1483328803       -2.2916097092        2.9995117310  MEMB      1               0.0000000000
       116         1  SAPS      H13X           -0.4039769461       -1.4722823859        3.0231631070  MEMB      1               0.0000000000
       117         1  SAPS      H13Y           -2.1605727401       -1.8617222056        2.7657285714  MEMB      1               0.0000000000
       118         1  SAPS      C314           -0.7601198325       -3.1456481261        1.8230782420  MEMB      1               0.0000000000
       119         1  SAPS      H14X           -1.2847290740       -4.0814297621        1.7456170190  MEMB      1               0.0000000000
       120         1  SAPS      H14Y            0.3184582982       -3.3782505852        1.7255371984  MEMB      1               0.0000000000
       121         1  SAPS      C315           -1.2174752816       -2.4747539832        0.6443847067  MEMB      1               0.0000000000
       122         1  SAPS      H15X           -0.7009935209       -1.4494162553        0.7204457342  MEMB      1               0.0000000000
       123         1  SAPS      H15Y           -2.2851092509       -2.1555162384        0.5584300429  MEMB      1               0.0000000000
       124         1  SAPS      C316           -0.8884610410       -3.4429370008       -0.5644451423  MEMB      1               0.0000000000
       125         1  SAPS      H16X           -1.4658960971       -4.3458274829       -0.5758838115  MEMB      1               0.0000000000
       126         1  SAPS      H16Y            0.2273931646       -3.5240821731       -0.7576957242  MEMB      1               0.0000000000
       127         1  SAPS      C317           -1.4589567036       -3.2171318509       -1.8889132963  MEMB      1               0.0000000000
       128         1  SAPS      H17X           -2.5082276286       -2.8913086615       -2.0716529846  MEMB      1               0.0000000000
       129         1  SAPS      H17Y           -0.9178745705       -3.5449984129       -2.8187148104  MEMB      1               0.0000000000
       130         1  SAPS      C318           -0.9199773009       -2.1222165034       -1.7310476851  MEMB      1               0.0000000000
       131         1  SAPS      H18X           -0.1109385461       -1.8128701202       -1.5413875127  MEMB      1               0.0000000000
       132         1  SAPS      H18Y           -1.1078770061       -1.3156039535       -0.9876621940  MEMB      1               0.0000000000
       133         1  SAPS      H18Z           -0.8897759881       -1.7229714323       -2.7120562068  MEMB      1               0.0000000000
       134         2  CHL1      C3             -4.5745950536        2.1838679131       17.3386383385  MEMB      2               0.0000000000
       135         2  CHL1      H3             -5.6876090320        2.2213527731       17.3706394535  MEMB      2               0.0000000000
       136         2  CHL1      O3             -4.1140489051        2.1405788679       18.6697973343  MEMB      2               0.0000000000
       137         2  CHL1      H3'            -4.3461258893        2.9969542677       19.0413344278  MEMB      2               0.0000000000
       138         2  CHL1      C4             -4.1354878392        0.9069579435       16.5934672004  MEMB      2               0.0000000000
       139         2  CHL1      H4A            -3.0418709856        0.7341002113       16.7005960759  MEMB      2               0.0000000000
       140         2  CHL1      H4B            -4.6210797043        0.0485906600       17.1074845548  MEMB      2               0.0000000000
       141         2  CHL1      C5             -4.5154472996        0.9847486151       15.1292219553  MEMB      2               0.0000000000
       142         2  CHL1      C6             -5.2831885536        0.0658283445       14.5244345454  MEMB      2               0.0000000000
       143         2  CHL1      H6             -5.6259577756       -0.8072690438       15.0908504392  MEMB      2               0.0000000000
       144         2  CHL1      C7             -5.6055433109        0.0707400104       13.0563406047  MEMB      2               0.0000000000
       145         2  CHL1      H7A            -5.5509405257       -0.9627867530       12.6493404377  MEMB      2               0.0000000000
       146         2  CHL1      H7B            -6.6359797425        0.4522277750       12.8786023033  MEMB      2               0.0000000000
       147         2  CHL1      C8             -4.6634478025        1.0121011749       12.2683915389  MEMB      2               0.0000000000
       148         2  CHL1      H8             -3.6716563216        0.5123151548       12.2034866701  MEMB      2               0.0000000000
       149         2  CHL1      C14            -5.2109947266        1.2506778124       10.8837730246  MEMB      2               0.0000000000
       150         2  CHL1      H14            -6.1929126913        1.7751432350       11.0287372432  MEMB      2               0.0000000000
       151         2  CHL1      C15            -5.5775919971        0.0284479645       10.0380943208  MEMB      2               0.0000000000
       152         2  CHL1      H15A           -4.9337655909       -0.8520820144       10.2098183372  MEMB      2               0.0000000000
       153         2  CHL1      H15B           -6.5812997046       -0.2583516051       10.3397842462  MEMB      2               0.0000000000
       154         2  CHL1      C16            -5.5239589052        0.5632345986        8.6020416480  MEMB      2               0.0000000000
       155         2  CHL1      H16A           -4.6833014683        0.0346389945        8.1093377184  MEMB      2               0.0000000000
       156         2  CHL1      H16B           -6.4545017219        0.3638927325        8.0380683823  MEMB      2               0.0000000000
       157         2  CHL1      C17            -5.1953784331        2.0969773627        8.7068604851  MEMB      2               0.0000000000
       158         2  CHL1      H17            -6.1720722544        2.6087864221        8.8841279242  MEMB      2               0.0000000000
       159         2  CHL1      C13            -4.4082305137        2.2067802630       10.0156771772  MEMB      2               0.0000000000
       160         2  CHL1      C18            -2.9813343286        1.6835924266        9.7558714323  MEMB      2               0.0000000000
       161         2  CHL1      H18A           -2.9722514598        0.7408488480        9.1786464758  MEMB      2               0.0000000000
       162         2  CHL1      H18B           -2.4414598185        2.4550340063        9.1684178040  MEMB      2               0.0000000000
       163         2  CHL1      H18C           -2.4400076035        1.5101286847       10.7072993892  MEMB      2               0.0000000000
       164         2  CHL1      C12            -4.3816926550        3.5788670575       10.7069715208  MEMB      2               0.0000000000
       165         2  CHL1      H12A           -3.6898708267        4.2697270319       10.1889844571  MEMB      2               0.0000000000
       166         2  CHL1      H12B           -5.3981881301        4.0222587328       10.6923811104  MEMB      2               0.0000000000
       167         2  CHL1      C11            -3.8706598735        3.4820156710       12.1464842777  MEMB      2               0.0000000000
       168         2  CHL1      H11A           -2.7782715111        3.3056388370       12.0996886018  MEMB      2               0.0000000000
       169         2  CHL1      H11B           -4.0374749012        4.4741378428       12.6198943628  MEMB      2               0.0000000000
       170         2  CHL1      C9             -4.5564987589        2.3650903135       12.9808083842  MEMB      2               0.0000000000
       171         2  CHL1      H9             -5.6097333241        2.7282757003       13.0972834430  MEMB      2               0.0000000000
       172         2  CHL1      C10            -3.9823542729        2.2229415280       14.4045909201  MEMB      2               0.0000000000
       173         2  CHL1      C19            -2.4541947946        2.0382426868       14.3180891900  MEMB      2               0.0000000000
       174         2  CHL1      H19A           -2.1895035244        1.1344085937       13.7270700731  MEMB      2               0.0000000000
       175         2  CHL1      H19B           -1.9844270573        2.9387403354       13.8777958708  MEMB      2               0.0000000000
       176         2  CHL1      H19C           -2.0286109019        1.9388973448       15.3310367061  MEMB      2               0.0000000000
       177         2  CHL1      C1             -4.3064709295        3.5177831966       15.1976187876  MEMB      2               0.0000000000
       178         2  CHL1      H1A            -3.7552414079        4.3485714389       14.7028858840  MEMB      2               0.0000000000
       179         2  CHL1      H1B            -5.3969793903        3.7113385817       15.0981488528  MEMB      2               0.0000000000
       180         2  CHL1      C2             -4.0061178623        3.4605393017       16.7057436508  MEMB      2               0.0000000000
       181         2  CHL1      H2A            -4.4234355407        4.3573594375       17.2172158139  MEMB      2               0.0000000000
       182         2  CHL1      H2B            -2.9127217330        3.4773976497       16.8910789431  MEMB      2               0.0000000000
       183         2  CHL1      C20            -4.6301032329        2.7488340104        7.4286019237  MEMB      2               0.0000000000
       184         2  CHL1      H20            -3.6675971987        2.2752902975        7.1305169116  MEMB      2               0.0000000000
       185         2  CHL1      C21            -4.3843634991        4.2676977645        7.6276671366  MEMB      2               0.0000000000
       186         2  CHL1      H21A           -4.1938549587        4.7898197133        6.6721237391  MEMB      2               0.0000000000
       187         2  CHL1      H21B           -3.4944298459        4.4879027946        8.2471315624  MEMB      2               0.0000000000
       188         2  CHL1      H21C           -5.2863131612        4.7170203415        8.0921979691  MEMB      2               0.0000000000
       189         2  CHL1      C22            -5.6396768106        2.5472941448        6.2693169171  MEMB      2               0.0000000000
       190         2  CHL1      H22A           -5.8837941125        1.4657960757        6.2047719718  MEMB      2               0.0000000000
       191         2  CHL1      H22B           -6.5784900204        3.0823889958        6.5258774929  MEMB      2               0.0000000000
       192         2  CHL1      C23            -5.1139209118        2.9980853835        4.8924912601  MEMB      2               0.0000000000
       193         2  CHL1      H23A           -4.7793887553        4.0544576172        4.9081901875  MEMB      2               0.0000000000
       194         2  CHL1      H23B           -4.2259684347        2.3678363295        4.6722976993  MEMB      2               0.0000000000
       195         2  CHL1      C24            -6.1300335552        2.8963676029        3.7439517015  MEMB      2               0.0000000000
       196         2  CHL1      H24A           -6.4359520485        1.8370068196        3.6174118869  MEMB      2               0.0000000000
       197         2  CHL1      H24B           -7.0517045810        3.4650821779        4.0027688630  MEMB      2               0.0000000000
       198         2  CHL1      C25            -5.5991967637        3.4040286823        2.3778632813  MEMB      2               0.0000000000
       199         2  CHL1      H25            -5.2710600793        4.4695336106        2.4858269872  MEMB      2               0.0000000000
       200         2  CHL1      C26            -4.4224269642        2.5267594556        1.8974276556  MEMB      2               0.0000000000
       201         2  CHL1      H26A           -3.8707321771        2.8689782035        1.0337304303  MEMB      2               0.0000000000
       202         2  CHL1      H26B           -3.6695253726        2.3740033070        2.6925259276  MEMB      2               0.0000000000
       203         2  CHL1      H26C           -4.7799131730        1.5793507121        1.4732657356  MEMB      2               0.0000000000
       204         2  CHL1      C27            -6.7721997019        3.3183891303        1.3893079900  MEMB      2               0.0000000000
       205         2  CHL1      H27A           -6.9462706900        2.2439146959        1.1682561155  MEMB      2               0.0000000000
       206         2  CHL1      H27B           -7.6908925175        3.7187203261        1.8680324294  MEMB      2               0.0000000000
       207         2  CHL1      H27C           -6.6110765581        3.8584955312        0.4353177750  MEMB      2               0.0000000000
       208         3  SOPE      N               2.0778338209        8.0572001775       23.0833371289  MEMB      3               0.0000000000
       209         3  SOPE      HN1             2.7759642322        8.2964495690       22.3225299407  MEMB      3               0.0000000000
       210         3  SOPE      HN2             1.7271048955        8.9461137466       23.4863037805  MEMB      3               0.0000000000
       211         3  SOPE      HN3             2.5659393741        7.5086887997       23.8081371560  MEMB      3               0.0000000000
       212         3  SOPE      C12             0.8594432331        7.3626946654       22.5185729696  MEMB      3               0.0000000000
       213         3  SOPE      H12A            0.3058202134        8.1272659948       21.9328079051  MEMB      3               0.0000000000
       214         3  SOPE      H12B            0.2090778696        7.0787444015       23.3657823865  MEMB      3               0.0000000000
       215         3  SOPE      C11             1.2361545045        6.1099300431       21.7114299026  MEMB      3               0.0000000000
       216         3  SOPE      H11A            0.3660504413        5.6942227574       21.1604740002  MEMB      3               0.0000000000
       217         3  SOPE      H11B            1.5687449001        5.3181834711       22.4187036009  MEMB      3               0.0000000000
       218         3  SOPE      P               3.1406839493        5.2449527015       20.1606802629  MEMB      3               0.0000000000
       219         3  SOPE      O13             3.5283425780        4.3405511743       21.2804326881  MEMB      3               0.0000000000
       220         3  SOPE      O14             4.2086232507        5.8308580488       19.3433788848  MEMB      3               0.0000000000
       221         3  SOPE      O12             2.2664234778        6.4294021514       20.7950229370  MEMB      3               0.0000000000
       222         3  SOPE      O11             2.1158567803        4.4164440955       19.2571456404  MEMB      3               0.0000000000
       223         3  SOPE      C1              1.4639530317        5.0759852992       18.1661748683  MEMB      3               0.0000000000
       224         3  SOPE      HA              2.0355625162        5.9636750224       17.7985743529  MEMB      3               0.0000000000
       225         3  SOPE      HB              0.4723437226        5.4221183973       18.5263974116  MEMB      3               0.0000000000
       226         3  SOPE      C2              1.2746548708        4.1567724828       16.9161599353  MEMB      3               0.0000000000
       227         3  SOPE      HS              0.9228525199        3.1659490123       17.2903882593  MEMB      3               0.0000000000
       228         3  SOPE      O21             2.5245958695        4.0506822668       16.2042851645  MEMB      3               0.0000000000
       229         3  SOPE      C21             2.9292469247        2.8827386502       15.7628134629  MEMB      3               0.0000000000
       230         3  SOPE      O22             2.5943585281        1.7919374805       16.1942158503  MEMB      3               0.0000000000
       231         3  SOPE      C22             3.7528625585        3.1172570609       14.4907633545  MEMB      3               0.0000000000
       232         3  SOPE      H2R             4.2334475068        2.1585752323       14.2074732011  MEMB      3               0.0000000000
       233         3  SOPE      H2S             4.5461460712        3.8474306437       14.7569298478  MEMB      3               0.0000000000
       234         3  SOPE      C3              0.2077739218        4.7547044895       15.9151227048  MEMB      3               0.0000000000
       235         3  SOPE      HX             -0.7695446125        4.9319288276       16.4210597787  MEMB      3               0.0000000000
       236         3  SOPE      HY              0.0417943012        3.9726516665       15.1354956134  MEMB      3               0.0000000000
       237         3  SOPE      O31             0.6485230594        6.0243568459       15.3629267127  MEMB      3               0.0000000000
       238         3  SOPE      C31             0.3213345904        6.3128532688       14.1088308371  MEMB      3               0.0000000000
       239         3  SOPE      O32            -0.2651871346        5.5631612968       13.3480662860  MEMB      3               0.0000000000
       240         3  SOPE      C32             0.7198072046        7.7623004352       13.7824430584  MEMB      3               0.0000000000
       241         3  SOPE      H2X             1.7984929026        7.8426509794       13.5482120338  MEMB      3               0.0000000000
       242         3  SOPE      H2Y             0.5376789640        8.3896037137       14.6773113097  MEMB      3               0.0000000000
       243         3  SOPE      C23             2.8560431004        3.6775119489       13.3520821083  MEMB      3               0.0000000000
       244         3  SOPE      H3R             2.5858357585        4.7353042707       13.5669742871  MEMB      3               0.0000000000
       245         3  SOPE      H3S             1.9146543295        3.0851200762       13.2733406780  MEMB      3               0.0000000000
       246         3  SOPE      C24             3.4944737736        3.6302589816       11.9662806305  MEMB      3               0.0000000000
       247         3  SOPE      H4R             4.3803993371        4.2964661767       11.9260870931  MEMB      3               0.0000000000
       248         3  SOPE      H4S             3.8166518984        2.5747472549       11.7949432770  MEMB      3               0.0000000000
       249         3  SOPE      C25             2.5119193637        4.0068171972       10.8512948720  MEMB      3               0.0000000000
       250         3  SOPE      H5R             1.6886724456        3.2728529318       10.8911539082  MEMB      3               0.0000000000
       251         3  SOPE      H5S             1.9910533781        4.9694877507       10.9621481296  MEMB      3               0.0000000000
       252         3  SOPE      C26             3.1453283848        4.0145439214        9.4689288942  MEMB      3               0.0000000000
       253         3  SOPE      H6R             3.7903006550        4.8664169343        9.2320098174  MEMB      3               0.0000000000
       254         3  SOPE      H6S             3.9663770766        3.2598107481        9.5582601794  MEMB      3               0.0000000000
       255         3  SOPE      C27             1.9871643283        3.8635173602        8.4107628354  MEMB      3               0.0000000000
       256         3  SOPE      H7R             1.3446900126        2.9732451333        8.6321721202  MEMB      3               0.0000000000
       257         3  SOPE      H7S             1.3279871183        4.7390106992        8.4435153583  MEMB      3               0.0000000000
       258         3  SOPE      C28             2.3741107675        3.8742642042        6.9219147424  MEMB      3               0.0000000000
       259         3  SOPE      H8R             3.2003542407        4.5893918682        6.7564216706  MEMB      3               0.0000000000
       260         3  SOPE      H8S             2.6145322505        2.8769208301        6.6726569203  MEMB      3               0.0000000000
       261         3  SOPE      C29             1.4507144612        3.7519918398        5.8051437857  MEMB      3               0.0000000000
       262         3  SOPE      H91             0.5743962387        4.2702151380        6.1169261847  MEMB      3               0.0000000000
       263         3  SOPE      C210            1.5568495222        3.1300829456        4.6048266924  MEMB      3               0.0000000000
       264         3  SOPE      H101            0.7146373692        3.1366757604        3.9468732872  MEMB      3               0.0000000000
       265         3  SOPE      C211            2.6476957056        2.3498351494        3.9788511175  MEMB      3               0.0000000000
       266         3  SOPE      H11R            2.2541757347        1.3419841702        3.7430795558  MEMB      3               0.0000000000
       267         3  SOPE      H11S            3.4716104520        2.2815566775        4.6589695584  MEMB      3               0.0000000000
       268         3  SOPE      C212            3.3384753959        2.7974700227        2.7146349623  MEMB      3               0.0000000000
       269         3  SOPE      H12R            2.7484833790        2.3687296216        1.8854456832  MEMB      3               0.0000000000
       270         3  SOPE      H12S            4.3151913809        2.3101965724        2.6956437711  MEMB      3               0.0000000000
       271         3  SOPE      C213            3.5397003481        4.2919799945        2.6875322947  MEMB      3               0.0000000000
       272         3  SOPE      H13R            4.2421978129        4.6194420947        3.4904259603  MEMB      3               0.0000000000
       273         3  SOPE      H13S            2.5553031126        4.7465809997        2.9086788919  MEMB      3               0.0000000000
       274         3  SOPE      C214            4.0291299462        4.8033239183        1.3433033564  MEMB      3               0.0000000000
       275         3  SOPE      H14R            4.0886543023        5.9087601170        1.4582209316  MEMB      3               0.0000000000
       276         3  SOPE      H14S            3.2975139237        4.5686754769        0.5391634769  MEMB      3               0.0000000000
       277         3  SOPE      C215            5.3756232316        4.1965795723        0.9521198951  MEMB      3               0.0000000000
       278         3  SOPE      H15R            5.2833394932        3.1024140532        0.8428609421  MEMB      3               0.0000000000
       279         3  SOPE      H15S            6.1010743727        4.3543571646        1.7779846945  MEMB      3               0.0000000000
       280         3  SOPE      C216            5.9295212671        4.7643150902       -0.3543654377  MEMB      3               0.0000000000
       281         3  SOPE      H16R            5.8266746730        5.8667791824       -0.2774023009  MEMB      3               0.0000000000
       282         3  SOPE      H16S            5.3005969026        4.4499497322       -1.2178967568  MEMB      3               0.0000000000
       283         3  SOPE      C217            7.3779635125        4.2969807275       -0.5615998691  MEMB      3               0.0000000000
       284         3  SOPE      H17R            7.3566458988        3.2632680312       -0.9738986798  MEMB      3               0.0000000000
       285         3  SOPE      H17S            7.8904029827        4.2283671815        0.4247227391  MEMB      3               0.0000000000
       286         3  SOPE      C218            8.2472330760        5.1451016049       -1.4802190652  MEMB      3               0.0000000000
       287         3  SOPE      H18R            9.2784335340        4.7332556555       -1.4521605885  MEMB      3               0.0000000000
       288         3  SOPE      H18S            8.3102832769        6.2010628514       -1.1466467621  MEMB      3               0.0000000000
       289         3  SOPE      H18T            7.8735536395        5.1060094171       -2.5254943963  MEMB      3               0.0000000000
       290         3  SOPE      C33            -0.1426687803        8.2744162983       12.6084782845  MEMB      3               0.0000000000
       291         3  SOPE      H3X            -1.1928399456        8.1625966521       12.9276276127  MEMB      3               0.0000000000
       292         3  SOPE      H3Y            -0.0070382964        7.6571035153       11.6927646387  MEMB      3               0.0000000000
       293         3  SOPE      C34             0.0441585459        9.7476804145       12.2598842951  MEMB      3               0.0000000000
       294         3  SOPE      H4X            -0.1987539840       10.3568926216       13.1650728748  MEMB      3               0.0000000000
       295         3  SOPE      H4Y            -0.6905482291       10.0352515092       11.4733071722  MEMB      3               0.0000000000
       296         3  SOPE      C35             1.4681516353       10.1419365847       11.8274393658  MEMB      3               0.0000000000
       297         3  SOPE      H5X             2.0522107742       10.2253543277       12.7663608235  MEMB      3               0.0000000000
       298         3  SOPE      H5Y             1.4004762266       11.1576200238       11.4497594444  MEMB      3               0.0000000000
       299         3  SOPE      C36             2.2569621534        9.2433587715       10.8395859464  MEMB      3               0.0000000000
       300         3  SOPE      H6X             2.2507641755        8.2185355540       11.2620357116  MEMB      3               0.0000000000
       301         3  SOPE      H6Y             3.3074635570        9.6123032670       10.7558623201  MEMB      3               0.0000000000
       302         3  SOPE      C37             1.7813371407        9.1909078618        9.3784953542  MEMB      3               0.0000000000
       303         3  SOPE      H7X             1.9332573554       10.2066862016        8.9501299524  MEMB      3               0.0000000000
       304         3  SOPE      H7Y             0.6983675914        8.9500685429        9.3942810311  MEMB      3               0.0000000000
       305         3  SOPE      C38             2.4983309382        8.1453653700        8.4816720004  MEMB      3               0.0000000000
       306         3  SOPE      H8X             2.5602735803        7.1789876222        9.0351835147  MEMB      3               0.0000000000
       307         3  SOPE      H8Y             3.5394976834        8.4470125301        8.2331334754  MEMB      3               0.0000000000
       308         3  SOPE      C39             1.7205171562        7.8205747934        7.1858444607  MEMB      3               0.0000000000
       309         3  SOPE      H9X             0.6418165762        7.9969732071        7.3944584604  MEMB      3               0.0000000000
       310         3  SOPE      H9Y             1.8784818405        6.7402243211        6.9572606411  MEMB      3               0.0000000000
       311         3  SOPE      C310            2.1748107786        8.6007977606        5.9386155401  MEMB      3               0.0000000000
       312         3  SOPE      H10X            3.1616593345        8.2097822962        5.6113020359  MEMB      3               0.0000000000
       313         3  SOPE      H10Y            2.3162488474        9.6689165903        6.2079476388  MEMB      3               0.0000000000
       314         3  SOPE      C311            1.2009358191        8.5754056615        4.7422139637  MEMB      3               0.0000000000
       315         3  SOPE      H11X            0.1982151038        8.8601387704        5.1348196583  MEMB      3               0.0000000000
       316         3  SOPE      H11Y            1.0812388198        7.5421283121        4.3438479514  MEMB      3               0.0000000000
       317         3  SOPE      C312            1.6701517553        9.5453569347        3.6200482838  MEMB      3               0.0000000000
       318         3  SOPE      H12X            1.9042498753       10.5433698306        4.0554920468  MEMB      3               0.0000000000
       319         3  SOPE      H12Y            0.8642656509        9.7043186569        2.8744633682  MEMB      3               0.0000000000
       320         3  SOPE      C313            2.8861868819        9.0211120280        2.8289147618  MEMB      3               0.0000000000
       321         3  SOPE      H13X            2.6734626203        7.9596175949        2.5808903701  MEMB      3               0.0000000000
       322         3  SOPE      H13Y            3.7966225860        9.0244082670        3.4740136802  MEMB      3               0.0000000000
       323         3  SOPE      C314            3.1780706120        9.7103742056        1.4758276390  MEMB      3               0.0000000000
       324         3  SOPE      H14X            2.9118207452       10.7919289197        1.4837518181  MEMB      3               0.0000000000
       325         3  SOPE      H14Y            2.5299905002        9.2982371272        0.6746390427  MEMB      3               0.0000000000
       326         3  SOPE      C315            4.6264813298        9.4019125930        1.0328571602  MEMB      3               0.0000000000
       327         3  SOPE      H15X            5.0506190692        8.5475560242        1.5682375424  MEMB      3               0.0000000000
       328         3  SOPE      H15Y            5.2725414513       10.1483784076        1.4867726699  MEMB      3               0.0000000000
       329         3  SOPE      C316            4.8050278260        9.2330919353       -0.5074130071  MEMB      3               0.0000000000
       330         3  SOPE      H16X            4.5741671018       10.1652898004       -1.0694983668  MEMB      3               0.0000000000
       331         3  SOPE      H16Y            4.0403091395        8.5038704188       -0.8396291830  MEMB      3               0.0000000000
       332         3  SOPE      C317            6.1898684799        8.7639763875       -1.0142424699  MEMB      3               0.0000000000
       333         3  SOPE      H17X            6.0070443442        8.3045735275       -2.0103310142  MEMB      3               0.0000000000
       334         3  SOPE      H17Y            6.6169249750        8.0028989433       -0.3343710291  MEMB      3               0.0000000000
       335         3  SOPE      C318            7.2381972955        9.8361832595       -1.2702046479  MEMB      3               0.0000000000
       336         3  SOPE      H18X            6.7842850971       10.6297539127       -1.9100782537  MEMB      3               0.0000000000
       337         3  SOPE      H18Y            8.1509223582        9.4810464503       -1.7738145613  MEMB      3               0.0000000000
       338         3  SOPE      H18Z            7.5663751667       10.2574280319       -0.2949182759  MEMB      3               0.0000000000
       339         4  CHL1      C3             -3.8521478359       -5.8018751682       17.2670304036  MEMB      4               0.0000000000
       340         4  CHL1      H3             -2.9414856744       -6.4279609191       17.1218539109  MEMB      4               0.0000000000
       341         4  CHL1      O3             -4.1149145209       -5.6745027792       18.6574968901  MEMB      4               0.0000000000
       342         4  CHL1      H3'            -3.5474227409       -4.9789404898       18.9980924055  MEMB      4               0.0000000000
       343         4  CHL1      C4             -3.6720464684       -4.4081356480       16.6447153758  MEMB      4               0.0000000000
       344         4  CHL1      H4A            -4.5994110743       -3.8548663136       16.8743980590  MEMB      4               0.0000000000
       345         4  CHL1      H4B            -2.8459981632       -3.8275900397       17.0995992814  MEMB      4               0.0000000000
       346         4  CHL1      C5             -3.5305496108       -4.4664467383       15.1497106378  MEMB      4               0.0000000000
       347         4  CHL1      C6             -2.4511938404       -3.9777837235       14.5206875829  MEMB      4               0.0000000000
       348         4  CHL1      H6             -1.6434303853       -3.4833010287       15.0794213365  MEMB      4               0.0000000000
       349         4  CHL1      C7             -2.3310314205       -3.9487334464       13.0350734039  MEMB      4               0.0000000000
       350         4  CHL1      H7A            -1.8279100171       -3.0152590280       12.7121477648  MEMB      4               0.0000000000
       351         4  CHL1      H7B            -1.6968364604       -4.8036392049       12.7180956217  MEMB      4               0.0000000000
       352         4  CHL1      C8             -3.7005316149       -4.1019071505       12.3370725285  MEMB      4               0.0000000000
       353         4  CHL1      H8             -4.2992742949       -3.1807041662       12.5217392550  MEMB      4               0.0000000000
       354         4  CHL1      C14            -3.4626653819       -4.3798114355       10.8520144423  MEMB      4               0.0000000000
       355         4  CHL1      H14            -2.8851867511       -5.3358839293       10.8088917004  MEMB      4               0.0000000000
       356         4  CHL1      C15            -2.6008822510       -3.4017190185       10.0477545752  MEMB      4               0.0000000000
       357         4  CHL1      H15A           -2.9098709798       -2.3892102040       10.3812343600  MEMB      4               0.0000000000
       358         4  CHL1      H15B           -1.5144769184       -3.5473596387       10.2228781000  MEMB      4               0.0000000000
       359         4  CHL1      C16            -2.9589133526       -3.7108373277        8.5827303884  MEMB      4               0.0000000000
       360         4  CHL1      H16A           -3.3258377450       -2.7865877922        8.0914223332  MEMB      4               0.0000000000
       361         4  CHL1      H16B           -2.0838349511       -4.0503146181        7.9922670613  MEMB      4               0.0000000000
       362         4  CHL1      C17            -4.1252032165       -4.7554303984        8.6016948828  MEMB      4               0.0000000000
       363         4  CHL1      H17            -3.7059803900       -5.7854406658        8.5732791595  MEMB      4               0.0000000000
       364         4  CHL1      C13            -4.7045857780       -4.6421529882       10.0263552748  MEMB      4               0.0000000000
       365         4  CHL1      C18            -5.6264540005       -3.4189458454       10.0895962903  MEMB      4               0.0000000000
       366         4  CHL1      H18A           -5.6673019285       -2.9649653257       11.0966634151  MEMB      4               0.0000000000
       367         4  CHL1      H18B           -5.2764615312       -2.6485697497        9.3815483410  MEMB      4               0.0000000000
       368         4  CHL1      H18C           -6.6450898793       -3.7192273332        9.8072574622  MEMB      4               0.0000000000
       369         4  CHL1      C12            -5.3282023267       -5.8899327046       10.6318665900  MEMB      4               0.0000000000
       370         4  CHL1      H12A           -6.1293448914       -6.2411307819        9.9850772658  MEMB      4               0.0000000000
       371         4  CHL1      H12B           -4.6009929782       -6.7288008007       10.6620028736  MEMB      4               0.0000000000
       372         4  CHL1      C11            -5.7260781596       -5.6128179684       12.0836778870  MEMB      4               0.0000000000
       373         4  CHL1      H11A           -6.5233499004       -4.8428173628       12.1546349227  MEMB      4               0.0000000000
       374         4  CHL1      H11B           -6.1343653991       -6.5466906522       12.4634619802  MEMB      4               0.0000000000
       375         4  CHL1      C9             -4.4793093305       -5.2690474496       12.9348028965  MEMB      4               0.0000000000
       376         4  CHL1      H9             -3.7976192949       -6.1500728210       12.8330864842  MEMB      4               0.0000000000
       377         4  CHL1      C10            -4.7265168381       -5.1357032925       14.4474004353  MEMB      4               0.0000000000
       378         4  CHL1      C19            -6.0165565824       -4.2978017838       14.6766573242  MEMB      4               0.0000000000
       379         4  CHL1      H19A           -6.8868085782       -4.7528283719       14.1610768786  MEMB      4               0.0000000000
       380         4  CHL1      H19B           -6.3010429453       -4.2445945546       15.7426165486  MEMB      4               0.0000000000
       381         4  CHL1      H19C           -5.8810058973       -3.2482352671       14.3436130395  MEMB      4               0.0000000000
       382         4  CHL1      C1             -4.8628049789       -6.5549406570       15.0691405793  MEMB      4               0.0000000000
       383         4  CHL1      H1A            -5.6958042602       -7.1165883648       14.6031801472  MEMB      4               0.0000000000
       384         4  CHL1      H1B            -3.9437400397       -7.1355705980       14.8345156922  MEMB      4               0.0000000000
       385         4  CHL1      C2             -5.0361764618       -6.5179168353       16.5965248620  MEMB      4               0.0000000000
       386         4  CHL1      H2A            -5.1058349282       -7.5461703222       17.0012585982  MEMB      4               0.0000000000
       387         4  CHL1      H2B            -5.9824277866       -5.9824820322       16.8355510491  MEMB      4               0.0000000000
       388         4  CHL1      C20            -5.0341247812       -4.6141410054        7.3653778889  MEMB      4               0.0000000000
       389         4  CHL1      H20            -5.5952900916       -3.6507757512        7.4350494842  MEMB      4               0.0000000000
       390         4  CHL1      C21            -6.0606969083       -5.7482239773        7.3264960039  MEMB      4               0.0000000000
       391         4  CHL1      H21A           -6.8953134623       -5.4076591473        7.9563443569  MEMB      4               0.0000000000
       392         4  CHL1      H21B           -5.6482933481       -6.6900099926        7.7419924173  MEMB      4               0.0000000000
       393         4  CHL1      H21C           -6.4580950908       -5.9483542763        6.3078366821  MEMB      4               0.0000000000
       394         4  CHL1      C22            -4.2448112354       -4.6372387501        6.0333246696  MEMB      4               0.0000000000
       395         4  CHL1      H22A           -3.3184763986       -4.0351344132        6.1021795367  MEMB      4               0.0000000000
       396         4  CHL1      H22B           -3.9111489005       -5.6794417856        5.8557688718  MEMB      4               0.0000000000
       397         4  CHL1      C23            -5.0695716303       -4.1441531300        4.8263242074  MEMB      4               0.0000000000
       398         4  CHL1      H23A           -5.9905786769       -4.7439553489        4.7218923012  MEMB      4               0.0000000000
       399         4  CHL1      H23B           -5.4046081367       -3.1045454631        5.0311319378  MEMB      4               0.0000000000
       400         4  CHL1      C24            -4.3051095159       -4.1924643212        3.4911579295  MEMB      4               0.0000000000
       401         4  CHL1      H24A           -4.7842841686       -3.5477957250        2.7266048091  MEMB      4               0.0000000000
       402         4  CHL1      H24B           -3.2971983626       -3.8082537623        3.6695418003  MEMB      4               0.0000000000
       403         4  CHL1      C25            -4.1800180974       -5.5771045765        2.8448198697  MEMB      4               0.0000000000
       404         4  CHL1      H25            -3.6485831851       -6.2373455802        3.5723975625  MEMB      4               0.0000000000
       405         4  CHL1      C26            -5.5652055658       -6.1208515514        2.5086338257  MEMB      4               0.0000000000
       406         4  CHL1      H26A           -6.0603333141       -5.4010664526        1.8212941854  MEMB      4               0.0000000000
       407         4  CHL1      H26B           -5.5022260310       -7.1120412331        2.0175462412  MEMB      4               0.0000000000
       408         4  CHL1      H26C           -6.1789698740       -6.2272358715        3.4219110358  MEMB      4               0.0000000000
       409         4  CHL1      C27            -3.3791382977       -5.5209983117        1.5393875502  MEMB      4               0.0000000000
       410         4  CHL1      H27A           -3.5941699300       -4.6228314720        0.9218299475  MEMB      4               0.0000000000
       411         4  CHL1      H27B           -2.3078583841       -5.5603777943        1.7884806046  MEMB      4               0.0000000000
       412         4  CHL1      H27C           -3.5981396306       -6.4040982086        0.9123320192  MEMB      4               0.0000000000
       413         5  SAPC      N               9.7590388721        3.7259510939       21.4880924863  MEMB      5               0.0000000000
       414         5  SAPC      C12             9.3048556298        4.0194457223       20.0736841772  MEMB      5               0.0000000000
       415         5  SAPC      H12A            9.8101539956        4.8924753303       19.6870867179  MEMB      5               0.0000000000
       416         5  SAPC      H12B            8.2652475888        4.3050413675       20.1634272506  MEMB      5               0.0000000000
       417         5  SAPC      C13             9.5450250946        4.9600674366       22.2532177031  MEMB      5               0.0000000000
       418         5  SAPC      H13A            8.5106841205        5.2629814729       22.1555604397  MEMB      5               0.0000000000
       419         5  SAPC      H13B            9.7287617893        4.7842818315       23.3098686324  MEMB      5               0.0000000000
       420         5  SAPC      H13C           10.2058821647        5.7426453405       21.9148176077  MEMB      5               0.0000000000
       421         5  SAPC      C14             8.8554754471        2.6781619652       22.0921289036  MEMB      5               0.0000000000
       422         5  SAPC      H14A            9.0029370847        2.5787354404       23.1498892022  MEMB      5               0.0000000000
       423         5  SAPC      H14B            7.8185220526        2.9392805731       21.9056969209  MEMB      5               0.0000000000
       424         5  SAPC      H14C            8.9933446907        1.7072050773       21.5968221170  MEMB      5               0.0000000000
       425         5  SAPC      C15            11.2048574385        3.3907736488       21.4821551122  MEMB      5               0.0000000000
       426         5  SAPC      H15A           11.3693353749        2.3694854627       21.1478504429  MEMB      5               0.0000000000
       427         5  SAPC      H15B           11.6643961877        4.0308760686       20.7356614142  MEMB      5               0.0000000000
       428         5  SAPC      H15C           11.6658985605        3.5577593973       22.4492522822  MEMB      5               0.0000000000
       429         5  SAPC      C11             9.5205874694        2.9206704632       19.0311814549  MEMB      5               0.0000000000
       430         5  SAPC      H11A           10.5127092512        3.0657176036       18.5571819555  MEMB      5               0.0000000000
       431         5  SAPC      H11B            8.7761881091        3.0155997329       18.2010638344  MEMB      5               0.0000000000
       432         5  SAPC      P               9.6652042332        0.4123344061       18.7672208755  MEMB      5               0.0000000000
       433         5  SAPC      O13            10.2297286385       -0.6749917625       19.5892760562  MEMB      5               0.0000000000
       434         5  SAPC      O14             8.3939721581        0.4322766873       18.0611500269  MEMB      5               0.0000000000
       435         5  SAPC      O12             9.5105704434        1.6553181583       19.6723005810  MEMB      5               0.0000000000
       436         5  SAPC      O11            10.8307058329        0.8242669588       17.7670355698  MEMB      5               0.0000000000
       437         5  SAPC      C1             12.1480477514        0.6471606361       18.2958455884  MEMB      5               0.0000000000
       438         5  SAPC      HA             12.2721696501        1.2452682996       19.2296176461  MEMB      5               0.0000000000
       439         5  SAPC      HB             12.3440045384       -0.4293374843       18.5513838945  MEMB      5               0.0000000000
       440         5  SAPC      C2             13.2826158470        1.0694586396       17.3227047082  MEMB      5               0.0000000000
       441         5  SAPC      HS             14.1839351076        1.1633482744       17.8835266715  MEMB      5               0.0000000000
       442         5  SAPC      O21            13.0809499401        2.2812954412       16.5980629773  MEMB      5               0.0000000000
       443         5  SAPC      C21            13.2188967745        3.3761966106       17.2970283815  MEMB      5               0.0000000000
       444         5  SAPC      O22            13.6667033040        3.4572755384       18.4279967343  MEMB      5               0.0000000000
       445         5  SAPC      C22            12.7959862490        4.5258133627       16.4039309204  MEMB      5               0.0000000000
       446         5  SAPC      H2R            13.0602459379        5.4360365880       16.9827151337  MEMB      5               0.0000000000
       447         5  SAPC      H2S            13.4173171414        4.5259021741       15.4835210142  MEMB      5               0.0000000000
       448         5  SAPC      C3             13.5960765008       -0.0404056611       16.3120527154  MEMB      5               0.0000000000
       449         5  SAPC      HX             13.7754066703       -0.9624901819       16.8928317020  MEMB      5               0.0000000000
       450         5  SAPC      HY             14.4756958090        0.2364273367       15.7064149505  MEMB      5               0.0000000000
       451         5  SAPC      O31            12.5842089774       -0.2657167081       15.4223079367  MEMB      5               0.0000000000
       452         5  SAPC      C31            12.3016132287       -1.5345665621       15.1702143607  MEMB      5               0.0000000000
       453         5  SAPC      O32            12.6027972679       -2.5353569065       15.7597027707  MEMB      5               0.0000000000
       454         5  SAPC      C32            11.3142218881       -1.4683859614       14.2406274821  MEMB      5               0.0000000000
       455         5  SAPC      H2X            10.7698306462       -1.2175891439       15.1694851664  MEMB      5               0.0000000000
       456         5  SAPC      H2Y            10.6959956689       -2.3654197916       13.9751384628  MEMB      5               0.0000000000
       457         5  SAPC      C23            11.2631314874        4.5106315894       16.1025451741  MEMB      5               0.0000000000
       458         5  SAPC      H3R            11.0010766700        5.4796441403       15.6219452340  MEMB      5               0.0000000000
       459         5  SAPC      H3S            10.7124170423        4.4500138033       17.0593269349  MEMB      5               0.0000000000
       460         5  SAPC      C24            10.7032830005        3.3911115855       15.1832855726  MEMB      5               0.0000000000
       461         5  SAPC      H4R            10.9817023136        2.3703315338       15.5361362003  MEMB      5               0.0000000000
       462         5  SAPC      H4S            11.1898564133        3.5524740455       14.2020697992  MEMB      5               0.0000000000
       463         5  SAPC      C25             9.1994692822        3.3768362915       15.0246482329  MEMB      5               0.0000000000
       464         5  SAPC      H5R             8.6170569165        3.4746801761       15.9583114612  MEMB      5               0.0000000000
       465         5  SAPC      C26             8.5289108102        3.1946800012       13.8668252276  MEMB      5               0.0000000000
       466         5  SAPC      H6R             7.4285270777        3.1256773108       13.9333311019  MEMB      5               0.0000000000
       467         5  SAPC      C27             9.1122064653        2.9700220204       12.4726356822  MEMB      5               0.0000000000
       468         5  SAPC      H7R             8.9407620874        1.9584552995       12.1003211392  MEMB      5               0.0000000000
       469         5  SAPC      H7S            10.2167732821        3.0966594614       12.4641173608  MEMB      5               0.0000000000
       470         5  SAPC      C28             8.4808540422        3.8759954696       11.4623002840  MEMB      5               0.0000000000
       471         5  SAPC      H8R             7.8241751401        4.5842583445       11.8958781093  MEMB      5               0.0000000000
       472         5  SAPC      C29             8.1867721465        3.7555981786       10.1817350141  MEMB      5               0.0000000000
       473         5  SAPC      H9R             7.7068514392        4.6033943233        9.6558200397  MEMB      5               0.0000000000
       474         5  SAPC      C210            8.4896259520        2.5014500029        9.4720389994  MEMB      5               0.0000000000
       475         5  SAPC      H10R            8.0931039567        1.6823264929       10.1170882512  MEMB      5               0.0000000000
       476         5  SAPC      H10S            9.5894928220        2.4243961402        9.4240755943  MEMB      5               0.0000000000
       477         5  SAPC      C211            7.8095702156        2.4033308234        8.1440687938  MEMB      5               0.0000000000
       478         5  SAPC      H11R            6.7757439034        2.0737705125        8.2410788018  MEMB      5               0.0000000000
       479         5  SAPC      C212            8.3098912230        2.5364233532        6.9069130617  MEMB      5               0.0000000000
       480         5  SAPC      H12R            7.6634911106        2.3594337392        6.0364733165  MEMB      5               0.0000000000
       481         5  SAPC      C213            9.7137080739        2.8239284081        6.5012003599  MEMB      5               0.0000000000
       482         5  SAPC      H13R           10.2502102849        3.5228568428        7.1643088162  MEMB      5               0.0000000000
       483         5  SAPC      H13S            9.6815074315        3.2817507346        5.4847069807  MEMB      5               0.0000000000
       484         5  SAPC      C214           10.4902575454        1.5537336266        6.5326436992  MEMB      5               0.0000000000
       485         5  SAPC      H14R           11.0050353719        1.3015131801        7.4655975400  MEMB      5               0.0000000000
       486         5  SAPC      C215           10.5271289385        0.6652362053        5.5651746559  MEMB      5               0.0000000000
       487         5  SAPC      H15R           11.3441107769       -0.0433610666        5.5869941774  MEMB      5               0.0000000000
       488         5  SAPC      C216            9.8372802388        0.7094081211        4.2710144965  MEMB      5               0.0000000000
       489         5  SAPC      H16R           10.5803925597        0.4041840193        3.4931088681  MEMB      5               0.0000000000
       490         5  SAPC      H16S            9.4393925083        1.6909542736        4.0613563644  MEMB      5               0.0000000000
       491         5  SAPC      C217            8.5416000744       -0.0319626187        4.1323446175  MEMB      5               0.0000000000
       492         5  SAPC      H17R            7.7945067779       -0.2603229208        4.9127259247  MEMB      5               0.0000000000
       493         5  SAPC      H17S            8.8212773088       -0.9472699364        4.0985383976  MEMB      5               0.0000000000
       494         5  SAPC      C218            8.2911534945       -0.4020374300        2.7041406074  MEMB      5               0.0000000000
       495         5  SAPC      H18R            7.6671980198       -1.3634395795        2.7634041022  MEMB      5               0.0000000000
       496         5  SAPC      H18S            9.0902791374       -0.7557753978        2.0506379100  MEMB      5               0.0000000000
       497         5  SAPC      C219            7.8994773015        0.9388104827        2.2029344884  MEMB      5               0.0000000000
       498         5  SAPC      H19R            8.3972695953        1.8534008001        2.4367440904  MEMB      5               0.0000000000
       499         5  SAPC      H19S            7.1368611052        1.1388876409        3.0606276760  MEMB      5               0.0000000000
       500         5  SAPC      C220            7.6599938285        1.0053273046        0.6225524133  MEMB      5               0.0000000000
       501         5  SAPC      H20R            6.9308023705        1.8223642401        0.4013977287  MEMB      5               0.0000000000
       502         5  SAPC      H20S            7.1175306044        0.1285948255        0.1571893669  MEMB      5               0.0000000000
       503         5  SAPC      H20T            8.4082431693        0.7401475923       -0.0886326135  MEMB      5               0.0000000000
       504         5  SAPC      C33            11.4936851977       -0.2020681698       13.3527567065  MEMB      5               0.0000000000
       505         5  SAPC      H3X            11.4496916924        0.8014107594       13.7382993388  MEMB      5               0.0000000000
       506         5  SAPC      H3Y            10.5530409722        0.2294802569       13.1584166446  MEMB      5               0.0000000000
       507         5  SAPC      C34            12.3489645793       -0.4052755632       12.1243042150  MEMB      5               0.0000000000
       508         5  SAPC      H4X            11.8800226103       -0.7738297381       11.2539063944  MEMB      5               0.0000000000
       509         5  SAPC      H4Y            12.9833056739       -1.2316898984       12.4245448445  MEMB      5               0.0000000000
       510         5  SAPC      C35            12.4645111645        0.6131925903       11.0153518170  MEMB      5               0.0000000000
       511         5  SAPC      H5X            11.5343747497        1.0726501668       10.6013116277  MEMB      5               0.0000000000
       512         5  SAPC      H5Y            12.8733441855        0.1679924547       10.0844880589  MEMB      5               0.0000000000
       513         5  SAPC      C36            13.3337557940        1.5038091065       11.7460553577  MEMB      5               0.0000000000
       514         5  SAPC      H6X            14.1681498267        0.8449161011       12.0954036790  MEMB      5               0.0000000000
       515         5  SAPC      H6Y            12.7852103535        1.8535930626       12.6488973763  MEMB      5               0.0000000000
       516         5  SAPC      C37            13.8113002795        2.5733589644       10.8457141893  MEMB      5               0.0000000000
       517         5  SAPC      H7X            14.2991616420        2.0830059949        9.9728236204  MEMB      5               0.0000000000
       518         5  SAPC      H7Y            14.5837447128        3.0841064660       11.4473550191  MEMB      5               0.0000000000
       519         5  SAPC      C38            12.7388967165        3.5740484694       10.4310223143  MEMB      5               0.0000000000
       520         5  SAPC      H8X            12.2198416423        4.0318262892       11.2890215859  MEMB      5               0.0000000000
       521         5  SAPC      H8Y            12.0031451373        3.1632229508        9.6917090429  MEMB      5               0.0000000000
       522         5  SAPC      C39            13.4369638402        4.6962255849        9.7832883057  MEMB      5               0.0000000000
       523         5  SAPC      H9X            14.2599282647        5.1258273094       10.3932689997  MEMB      5               0.0000000000
       524         5  SAPC      H9Y            12.7956640693        5.5774399854        9.6563309532  MEMB      5               0.0000000000
       525         5  SAPC      C310           13.8954744397        4.1074481269        8.4818026994  MEMB      5               0.0000000000
       526         5  SAPC      H10X           14.4457539484        3.1869893831        8.3266288115  MEMB      5               0.0000000000
       527         5  SAPC      H10Y           14.8797616323        4.5501678959        8.5063802461  MEMB      5               0.0000000000
       528         5  SAPC      C311           12.7537032417        4.2262741328        7.4231076914  MEMB      5               0.0000000000
       529         5  SAPC      H11X           12.0691181775        5.0168830987        7.5537911263  MEMB      5               0.0000000000
       530         5  SAPC      H11Y           12.4754299508        3.2332292195        7.1128618284  MEMB      5               0.0000000000
       531         5  SAPC      C312           13.0860710508        4.6609575403        6.0762673424  MEMB      5               0.0000000000
       532         5  SAPC      H12X           14.1037285628        4.5663260688        6.4053454593  MEMB      5               0.0000000000
       533         5  SAPC      H12Y           13.2228558182        5.6678024809        6.1719007858  MEMB      5               0.0000000000
       534         5  SAPC      C313           12.4991295770        5.2056314268        4.7360207882  MEMB      5               0.0000000000
       535         5  SAPC      H13X           13.2888350221        5.8855408835        4.2584423221  MEMB      5               0.0000000000
       536         5  SAPC      H13Y           11.6193605036        5.7615299451        4.6441443794  MEMB      5               0.0000000000
       537         5  SAPC      C314           11.9289307052        4.1742704217        3.8787248701  MEMB      5               0.0000000000
       538         5  SAPC      H14X           11.4478497858        3.5494011837        4.6349961957  MEMB      5               0.0000000000
       539         5  SAPC      H14Y           12.6652624140        3.5754836643        3.3736189350  MEMB      5               0.0000000000
       540         5  SAPC      C315           11.0336992615        4.7206255425        2.8033846229  MEMB      5               0.0000000000
       541         5  SAPC      H15X           11.6135971037        5.3658222012        2.1049343807  MEMB      5               0.0000000000
       542         5  SAPC      H15Y           10.2189439688        5.3182703398        3.2764187514  MEMB      5               0.0000000000
       543         5  SAPC      C316           10.5025738706        3.5567926690        2.0089232232  MEMB      5               0.0000000000
       544         5  SAPC      H16X            9.8677126514        4.0166375636        1.2337293769  MEMB      5               0.0000000000
       545         5  SAPC      H16Y            9.8784792219        2.9615934210        2.6786301043  MEMB      5               0.0000000000
       546         5  SAPC      C317           11.5673572960        2.6487165961        1.3773999332  MEMB      5               0.0000000000
       547         5  SAPC      H17X           11.0595170970        1.8512076620        0.7970526315  MEMB      5               0.0000000000
       548         5  SAPC      H17Y           12.1634978039        2.1073994782        2.1514387591  MEMB      5               0.0000000000
       549         5  SAPC      C318           12.4619836844        3.4418096960        0.4386010820  MEMB      5               0.0000000000
       550         5  SAPC      H18X           13.1038194749        4.1444229084        0.9137338407  MEMB      5               0.0000000000
       551         5  SAPC      H18Y           11.8887309715        4.1515136228       -0.1778428471  MEMB      5               0.0000000000
       552         5  SAPC      H18Z           13.1915379053        2.8233512865       -0.0890680165  MEMB      5               0.0000000000
       553         6  OSM       N               1.7094514653       -8.4898486989       22.4273500137  MEMB      6               0.0000000000
       554         6  OSM       C15             2.8566303657       -7.7082268324       21.8364456918  MEMB      6               0.0000000000
       555         6  OSM       H15A            3.5825173106       -7.4702577933       22.5985503414  MEMB      6               0.0000000000
       556         6  OSM       H15B            2.5642241887       -6.7603047533       21.3855055907  MEMB      6               0.0000000000
       557         6  OSM       H15C            3.3610685864       -8.2667762242       21.0417441393  MEMB      6               0.0000000000
       558         6  OSM       C14             1.3123270573       -7.8190823461       23.6985170816  MEMB      6               0.0000000000
       559         6  OSM       H14A            2.1335627875       -7.7664221389       24.4068266936  MEMB      6               0.0000000000
       560         6  OSM       H14B            0.4585911237       -8.3038281694       24.1409794969  MEMB      6               0.0000000000
       561         6  OSM       H14C            1.0576732409       -6.7715250921       23.5167420405  MEMB      6               0.0000000000
       562         6  OSM       C13             0.5377499897       -8.3537158055       21.5291728378  MEMB      6               0.0000000000
       563         6  OSM       H13A            0.7188470843       -8.9469494718       20.6406510192  MEMB      6               0.0000000000
       564         6  OSM       H13B            0.4445262009       -7.3084813998       21.2481054775  MEMB      6               0.0000000000
       565         6  OSM       H13C           -0.3727627824       -8.6315694904       22.0461810366  MEMB      6               0.0000000000
       566         6  OSM       C12             2.0606081479       -9.9643552368       22.6835195072  MEMB      6               0.0000000000
       567         6  OSM       H12A            1.2195991021      -10.3848624750       23.2031546648  MEMB      6               0.0000000000
       568         6  OSM       H12B            2.9240510059       -9.9951545648       23.3383187803  MEMB      6               0.0000000000
       569         6  OSM       C11             2.3990411602      -10.9719645978       21.5433125355  MEMB      6               0.0000000000
       570         6  OSM       H11A            1.5174664879      -11.1892462627       20.9006961940  MEMB      6               0.0000000000
       571         6  OSM       H11B            2.7072935802      -11.9432179378       22.0040338761  MEMB      6               0.0000000000
       572         6  OSM       P               3.9673119132      -11.1240087911       19.4347926878  MEMB      6               0.0000000000
       573         6  OSM       O13             4.9831171422      -10.2075786248       18.8840681853  MEMB      6               0.0000000000
       574         6  OSM       O14             4.4324127430      -12.4894802870       19.7084149496  MEMB      6               0.0000000000
       575         6  OSM       O11             2.6519357584      -11.1813596288       18.5692198066  MEMB      6               0.0000000000
       576         6  OSM       O12             3.4737500432      -10.4645859392       20.7900352621  MEMB      6               0.0000000000
       577         6  OSM       C1S             1.7848837791      -10.0570275970       18.4103824206  MEMB      6               0.0000000000
       578         6  OSM       H1S             2.1011861705       -9.1544036011       18.9670108543  MEMB      6               0.0000000000
       579         6  OSM       H1T             0.7851545628      -10.3314840268       18.8217897002  MEMB      6               0.0000000000
       580         6  OSM       NF              1.1798330129       -8.4145771286       16.5800660168  MEMB      6               0.0000000000
       581         6  OSM       HNF             0.2582306381       -8.4460288797       16.2225038342  MEMB      6               0.0000000000
       582         6  OSM       C2S             1.6423637824       -9.7460218850       16.8953741803  MEMB      6               0.0000000000
       583         6  OSM       H2S             2.6623697583       -9.8914654562       16.4489094827  MEMB      6               0.0000000000
       584         6  OSM       C3S             0.5664300672      -10.7015594088       16.3389462963  MEMB      6               0.0000000000
       585         6  OSM       H3S            -0.4435025861      -10.3111040969       16.4812793181  MEMB      6               0.0000000000
       586         6  OSM       O3              0.4687181129      -11.9071491283       17.0786387541  MEMB      6               0.0000000000
       587         6  OSM       HO3             1.3738156381      -12.0900991598       17.4078566079  MEMB      6               0.0000000000
       588         6  OSM       C4S             0.7955637944      -10.7863444190       14.8039420927  MEMB      6               0.0000000000
       589         6  OSM       H4S             0.1014782258      -10.2044825141       14.2203755701  MEMB      6               0.0000000000
       590         6  OSM       C5S             1.7254048480      -11.4173908736       14.0976797440  MEMB      6               0.0000000000
       591         6  OSM       H5S             2.4311206923      -11.8373564519       14.7507692207  MEMB      6               0.0000000000
       592         6  OSM       C6S             2.0911734803      -11.6125344821       12.6402883008  MEMB      6               0.0000000000
       593         6  OSM       H6S             1.5013003004      -12.4656779628       12.2259299386  MEMB      6               0.0000000000
       594         6  OSM       H6T             3.1588822973      -11.9424023223       12.5376334226  MEMB      6               0.0000000000
       595         6  OSM       C7S             1.9889594432      -10.3328192420       11.8149029021  MEMB      6               0.0000000000
       596         6  OSM       H7S             2.5753420814       -9.5242302473       12.3094302637  MEMB      6               0.0000000000
       597         6  OSM       H7T             0.9341269968       -9.9979496107       11.7764388529  MEMB      6               0.0000000000
       598         6  OSM       C8S             2.5170556493      -10.4752667193       10.3771455728  MEMB      6               0.0000000000
       599         6  OSM       H8S             3.6218537483      -10.6041649431       10.4097611908  MEMB      6               0.0000000000
       600         6  OSM       H8T             2.2747312098       -9.5125871871        9.8772425428  MEMB      6               0.0000000000
       601         6  OSM       C9S             1.9252619441      -11.6744709477        9.6220489184  MEMB      6               0.0000000000
       602         6  OSM       H9S             0.8161634823      -11.6006134267        9.5982291727  MEMB      6               0.0000000000
       603         6  OSM       H9T             2.1779446691      -12.5834745957       10.2044238686  MEMB      6               0.0000000000
       604         6  OSM       C10S            2.4090340512      -11.9108256685        8.1784002808  MEMB      6               0.0000000000
       605         6  OSM       H10S            1.8831232381      -12.8489422556        7.8768813904  MEMB      6               0.0000000000
       606         6  OSM       H10T            3.4951712750      -12.1535640377        8.1411566902  MEMB      6               0.0000000000
       607         6  OSM       C11S            2.0283257266      -10.7685840454        7.2067109157  MEMB      6               0.0000000000
       608         6  OSM       H11S            2.0614889726      -11.1363735687        6.1596017068  MEMB      6               0.0000000000
       609         6  OSM       H11T            2.7710889801       -9.9423267119        7.2699309865  MEMB      6               0.0000000000
       610         6  OSM       C12S            0.5854859842      -10.2623578202        7.4262573418  MEMB      6               0.0000000000
       611         6  OSM       H12S            0.4800083803       -9.7694190012        8.4186363452  MEMB      6               0.0000000000
       612         6  OSM       H12T           -0.0466241288      -11.1753825292        7.4536444627  MEMB      6               0.0000000000
       613         6  OSM       C13S            0.0462300880       -9.3231342962        6.3362207403  MEMB      6               0.0000000000
       614         6  OSM       H13S            0.7118325551       -8.4303006007        6.2614113347  MEMB      6               0.0000000000
       615         6  OSM       H13T           -0.9680950850       -8.9492720886        6.6081796122  MEMB      6               0.0000000000
       616         6  OSM       C14S           -0.0526865786       -9.9558448535        4.9403205767  MEMB      6               0.0000000000
       617         6  OSM       H14S           -0.6583010761      -10.8858905912        4.9104450305  MEMB      6               0.0000000000
       618         6  OSM       H14T            0.9743994326      -10.2143529562        4.6000811771  MEMB      6               0.0000000000
       619         6  OSM       C15S           -0.6665357079       -8.9337593922        3.9937734608  MEMB      6               0.0000000000
       620         6  OSM       H15S           -0.1022783400       -7.9892298896        4.1714011766  MEMB      6               0.0000000000
       621         6  OSM       H15T           -1.7452988833       -8.7760720932        4.2286169864  MEMB      6               0.0000000000
       622         6  OSM       C16S           -0.6046626087       -9.3076793685        2.5270728483  MEMB      6               0.0000000000
       623         6  OSM       H16S           -1.4616578435       -9.9919195185        2.3148606980  MEMB      6               0.0000000000
       624         6  OSM       H16T            0.3148630832       -9.8752524765        2.2749618857  MEMB      6               0.0000000000
       625         6  OSM       C17S           -0.7616899362       -8.0651965726        1.6527864204  MEMB      6               0.0000000000
       626         6  OSM       H17S           -1.7207994598       -7.5470037412        1.8430683571  MEMB      6               0.0000000000
       627         6  OSM       H17T           -0.8194146280       -8.4485397251        0.6594934959  MEMB      6               0.0000000000
       628         6  OSM       C18S            0.3810297162       -7.0787736729        1.5022490147  MEMB      6               0.0000000000
       629         6  OSM       H18S            0.6543559526       -6.6595807140        2.4856738692  MEMB      6               0.0000000000
       630         6  OSM       H18T            0.0375492297       -6.2631256073        0.8284365493  MEMB      6               0.0000000000
       631         6  OSM       H18U            1.2613864906       -7.5565079264        1.0213464347  MEMB      6               0.0000000000
       632         6  OSM       C1F             1.7447442807       -7.2219687224       16.7430301925  MEMB      6               0.0000000000
       633         6  OSM       OF              2.6560929968       -7.0377841813       17.5322909891  MEMB      6               0.0000000000
       634         6  OSM       C2F             1.0733438013       -6.1360186945       15.9359247792  MEMB      6               0.0000000000
       635         6  OSM       H2F             0.8115046215       -5.2512697701       16.5588530214  MEMB      6               0.0000000000
       636         6  OSM       H2G             0.1754046774       -6.5510751325       15.4424476577  MEMB      6               0.0000000000
       637         6  OSM       C3F             1.8708732726       -5.6606551171       14.7140134911  MEMB      6               0.0000000000
       638         6  OSM       H3F             2.6112447325       -5.0339763083       15.2020414290  MEMB      6               0.0000000000
       639         6  OSM       H3G             1.3255888688       -4.8469618889       14.2128851626  MEMB      6               0.0000000000
       640         6  OSM       C4F             2.2520081616       -6.8237049858       13.6996174388  MEMB      6               0.0000000000
       641         6  OSM       H4F             1.3949820975       -6.7516526478       13.0018573097  MEMB      6               0.0000000000
       642         6  OSM       H4G             2.4444725187       -7.7794760916       14.2280281128  MEMB      6               0.0000000000
       643         6  OSM       C5F             3.2905117274       -6.7934387511       12.5704769488  MEMB      6               0.0000000000
       644         6  OSM       H5F             3.9447715954       -7.5955093908       12.1561882466  MEMB      6               0.0000000000
       645         6  OSM       H5G             4.2335845887       -6.7691534588       13.0941985149  MEMB      6               0.0000000000
       646         6  OSM       C6F             2.8330727537       -5.8103218186       11.4562407749  MEMB      6               0.0000000000
       647         6  OSM       H6F             3.8263966301       -5.8835792547       11.1969522416  MEMB      6               0.0000000000
       648         6  OSM       H6G             2.6932623998       -4.7101887969       11.3469206458  MEMB      6               0.0000000000
       649         6  OSM       C7F             2.4028061327       -6.1658768597       10.1576701839  MEMB      6               0.0000000000
       650         6  OSM       H7F             2.0244688387       -5.2647407784        9.6355826455  MEMB      6               0.0000000000
       651         6  OSM       H7G             1.5857604542       -6.6214632286       10.7277502181  MEMB      6               0.0000000000
       652         6  OSM       C8F             3.4158083402       -7.1048165687        9.4872908075  MEMB      6               0.0000000000
       653         6  OSM       H8F             2.6477936062       -7.4502124332        8.7954064376  MEMB      6               0.0000000000
       654         6  OSM       H8G             3.6497422261       -7.8287844208       10.2710268066  MEMB      6               0.0000000000
       655         6  OSM       C9F             4.7500027783       -7.1578627710        8.7959391457  MEMB      6               0.0000000000
       656         6  OSM       H9F             5.6326611313       -6.7224341527        9.2943403641  MEMB      6               0.0000000000
       657         6  OSM       C10F            4.9172474174       -7.0395258587        7.5042681362  MEMB      6               0.0000000000
       658         6  OSM       H10F            5.9372158041       -6.6977826265        7.2498207491  MEMB      6               0.0000000000
       659         6  OSM       C11F            3.8122304606       -6.7809018501        6.4906082848  MEMB      6               0.0000000000
       660         6  OSM       H11F            3.5847985854       -5.7202788248        6.1952089695  MEMB      6               0.0000000000
       661         6  OSM       H11G            2.8412752597       -7.1180978795        6.8390041449  MEMB      6               0.0000000000
       662         6  OSM       C12F            4.3700866664       -7.4254976165        5.2914706153  MEMB      6               0.0000000000
       663         6  OSM       H12F            4.6897380758       -8.4342254064        5.6273930332  MEMB      6               0.0000000000
       664         6  OSM       H12G            5.2705880327       -6.9044349109        4.8735764446  MEMB      6               0.0000000000
       665         6  OSM       C13F            3.3556414981       -7.6239009662        4.2055333433  MEMB      6               0.0000000000
       666         6  OSM       H13F            2.9573492276       -6.6734537231        3.7967191935  MEMB      6               0.0000000000
       667         6  OSM       H13G            2.5107051891       -8.2460317750        4.5710752598  MEMB      6               0.0000000000
       668         6  OSM       C14F            4.2096819446       -8.2854805178        3.1731609807  MEMB      6               0.0000000000
       669         6  OSM       H14F            4.5260645924       -9.2854001992        3.5430006601  MEMB      6               0.0000000000
       670         6  OSM       H14G            5.1131202103       -7.6268514065        3.0635046173  MEMB      6               0.0000000000
       671         6  OSM       C15F            3.6540401868       -8.2720437850        1.8005515709  MEMB      6               0.0000000000
       672         6  OSM       H15F            3.3485377455       -7.2238512194        1.5587386039  MEMB      6               0.0000000000
       673         6  OSM       H15G            2.7798309442       -8.9432240087        1.6438531833  MEMB      6               0.0000000000
       674         6  OSM       C16F            4.7996093986       -8.6700531339        0.9070404905  MEMB      6               0.0000000000
       675         6  OSM       H16F            5.3014131095       -9.6027726296        1.2193540753  MEMB      6               0.0000000000
       676         6  OSM       H16G            5.5133333353       -7.8120405164        0.7926189910  MEMB      6               0.0000000000
       677         6  OSM       C17F            4.2015814674       -8.9852661600       -0.3789061845  MEMB      6               0.0000000000
       678         6  OSM       H17F            4.9616261066       -8.9030298119       -1.1587464907  MEMB      6               0.0000000000
       679         6  OSM       H17G            3.4528241003       -8.1565804507       -0.4527434578  MEMB      6               0.0000000000
       680         6  OSM       C18F            3.5320377715      -10.3199182289       -0.5745484015  MEMB      6               0.0000000000
       681         6  OSM       H18F            4.1967794377      -11.1483179563       -0.3021621544  MEMB      6               0.0000000000
       682         6  OSM       H18G            3.4337985276      -10.4681429781       -1.6541707967  MEMB      6               0.0000000000
       683         6  OSM       H18H            2.5300386072      -10.3251947259       -0.1056253545  MEMB      6               0.0000000000
       684         7  CHL1      C3            -11.0635127829       -1.6957286116       17.3068506491  MEMB      7               0.0000000000
       685         7  CHL1      H3            -11.3513733750       -2.7460177654       17.0839037219  MEMB      7               0.0000000000
       686         7  CHL1      O3            -10.9083217556       -1.5503571407       18.7013823039  MEMB      7               0.0000000000
       687         7  CHL1      H3'           -10.6037902206       -2.4204371343       19.0297460997  MEMB      7               0.0000000000
       688         7  CHL1      C4             -9.7229843490       -1.3654541796       16.6400894033  MEMB      7               0.0000000000
       689         7  CHL1      H4A            -9.5078999196       -0.2954192089       16.8658587971  MEMB      7               0.0000000000
       690         7  CHL1      H4B            -8.9090909774       -1.9505446225       17.1101500390  MEMB      7               0.0000000000
       691         7  CHL1      C5             -9.8031103273       -1.5922735784       15.1475481064  MEMB      7               0.0000000000
       692         7  CHL1      C6             -8.9359213968       -2.3348374234       14.4523609118  MEMB      7               0.0000000000
       693         7  CHL1      H6             -8.1551597206       -2.8457992918       15.0232020333  MEMB      7               0.0000000000
       694         7  CHL1      C7             -8.9656130357       -2.4937788618       12.9451346758  MEMB      7               0.0000000000
       695         7  CHL1      H7A            -7.9522795069       -2.3373804512       12.4879865545  MEMB      7               0.0000000000
       696         7  CHL1      H7B            -9.3430144620       -3.4904099687       12.6590209098  MEMB      7               0.0000000000
       697         7  CHL1      C8             -9.8869743518       -1.4589244829       12.2445847795  MEMB      7               0.0000000000
       698         7  CHL1      H8             -9.1808933396       -0.6403106832       12.3513523302  MEMB      7               0.0000000000
       699         7  CHL1      C14           -10.0586498208       -1.7766747707       10.7551125274  MEMB      7               0.0000000000
       700         7  CHL1      H14           -10.6490537505       -2.7034629614       10.8018404558  MEMB      7               0.0000000000
       701         7  CHL1      C15            -8.8090235334       -2.0339042108        9.8966283572  MEMB      7               0.0000000000
       702         7  CHL1      H15A           -8.0652020832       -1.2825821998       10.1483734981  MEMB      7               0.0000000000
       703         7  CHL1      H15B           -8.3779853733       -2.9991091478       10.1469479671  MEMB      7               0.0000000000
       704         7  CHL1      C16            -9.2668401157       -1.8508752333        8.4340595421  MEMB      7               0.0000000000
       705         7  CHL1      H16A           -8.6616438420       -1.0484564865        7.9151498402  MEMB      7               0.0000000000
       706         7  CHL1      H16B           -9.1843690548       -2.7428951038        7.8159818963  MEMB      7               0.0000000000
       707         7  CHL1      C17           -10.8068373916       -1.5292224023        8.5343642229  MEMB      7               0.0000000000
       708         7  CHL1      H17           -11.4367692549       -2.4060745888        8.6546206733  MEMB      7               0.0000000000
       709         7  CHL1      C13           -10.9155360999       -0.8904260237        9.8823204688  MEMB      7               0.0000000000
       710         7  CHL1      C18            -9.9505874184        0.2857561617        9.3828461554  MEMB      7               0.0000000000
       711         7  CHL1      H18A           -9.9230800054        0.3734337201       10.3363080750  MEMB      7               0.0000000000
       712         7  CHL1      H18B           -8.8681856410        0.3673196255        9.5099166616  MEMB      7               0.0000000000
       713         7  CHL1      H18C          -10.2488912776        1.3229824482        9.3885667039  MEMB      7               0.0000000000
       714         7  CHL1      C12           -12.3874303906       -0.8871739324       10.6353253362  MEMB      7               0.0000000000
       715         7  CHL1      H12A          -13.0121393532       -0.1246410152       10.1613618190  MEMB      7               0.0000000000
       716         7  CHL1      H12B          -12.8775170218       -1.8298012621       10.3433764270  MEMB      7               0.0000000000
       717         7  CHL1      C11           -12.4963519316       -0.6741488148       12.2380011428  MEMB      7               0.0000000000
       718         7  CHL1      H11A          -12.6960484843        0.3490398905       12.6340164088  MEMB      7               0.0000000000
       719         7  CHL1      H11B          -13.4762904792       -0.7361031143       12.7225660060  MEMB      7               0.0000000000
       720         7  CHL1      C9            -11.2481316752       -1.2933534151       13.0070432648  MEMB      7               0.0000000000
       721         7  CHL1      H9            -11.6536598311       -2.3131106592       13.0736995773  MEMB      7               0.0000000000
       722         7  CHL1      C10           -11.0290243120       -0.9522063809       14.5157948969  MEMB      7               0.0000000000
       723         7  CHL1      C19           -10.7316855014        0.4617466060       14.6726836493  MEMB      7               0.0000000000
       724         7  CHL1      H19A           -9.9042968713        0.5661535193       13.9442206731  MEMB      7               0.0000000000
       725         7  CHL1      H19B          -11.6198743991        1.0489647394       14.3396682385  MEMB      7               0.0000000000
       726         7  CHL1      H19C          -10.4394610339        0.9491890205       15.6247303579  MEMB      7               0.0000000000
       727         7  CHL1      C1            -12.3295207082       -1.0890463641       15.2790307776  MEMB      7               0.0000000000
       728         7  CHL1      H1A           -13.0500894583       -0.3992195426       14.7950478089  MEMB      7               0.0000000000
       729         7  CHL1      H1B           -12.6696836177       -2.1237514467       15.1273016768  MEMB      7               0.0000000000
       730         7  CHL1      C2            -12.1657730775       -0.7707887441       16.7708963196  MEMB      7               0.0000000000
       731         7  CHL1      H2A           -13.1405283421       -0.8999977345       17.2760322721  MEMB      7               0.0000000000
       732         7  CHL1      H2B           -11.8542579771        0.2828442670       16.9589317491  MEMB      7               0.0000000000
       733         7  CHL1      C20           -11.2909405664       -0.8035579702        7.2823102373  MEMB      7               0.0000000000
       734         7  CHL1      H20           -10.5401240893       -0.0038720408        7.2131735516  MEMB      7               0.0000000000
       735         7  CHL1      C21           -12.8199201619       -0.4486253780        7.2641006454  MEMB      7               0.0000000000
       736         7  CHL1      H21A          -13.3321516154       -0.5454885088        6.3065879917  MEMB      7               0.0000000000
       737         7  CHL1      H21B          -13.1410939756        0.5916398587        7.2118883728  MEMB      7               0.0000000000
       738         7  CHL1      H21C          -13.3232513674       -0.8769719990        8.1444755653  MEMB      7               0.0000000000
       739         7  CHL1      C22           -11.0492993656       -1.5107545858        5.9638892545  MEMB      7               0.0000000000
       740         7  CHL1      H22A          -10.4968464656       -2.4356417955        6.1588178566  MEMB      7               0.0000000000
       741         7  CHL1      H22B          -12.0628685610       -1.7666116539        5.6083782777  MEMB      7               0.0000000000
       742         7  CHL1      C23           -10.3088162092       -0.7494571953        4.8586398498  MEMB      7               0.0000000000
       743         7  CHL1      H23A          -10.4733686791        0.2989691008        4.7416806124  MEMB      7               0.0000000000
       744         7  CHL1      H23B           -9.2295136403       -0.7609702270        5.0593373546  MEMB      7               0.0000000000
       745         7  CHL1      C24           -10.7928240839       -1.1709700630        3.4891981464  MEMB      7               0.0000000000
       746         7  CHL1      H24A          -10.3845726795       -2.1603636196        3.2726370192  MEMB      7               0.0000000000
       747         7  CHL1      H24B          -11.9162562896       -1.2416180475        3.5225176599  MEMB      7               0.0000000000
       748         7  CHL1      C25           -10.4664670080       -0.1854959996        2.3768989653  MEMB      7               0.0000000000
       749         7  CHL1      H25            -9.8052101075        0.6664707127        2.6716263515  MEMB      7               0.0000000000
       750         7  CHL1      C26            -9.9501592466       -0.8215532788        1.1018457994  MEMB      7               0.0000000000
       751         7  CHL1      H26A           -8.8930139971       -1.0629701066        1.2805052508  MEMB      7               0.0000000000
       752         7  CHL1      H26B          -10.5836211792       -1.7138749543        0.9146431295  MEMB      7               0.0000000000
       753         7  CHL1      H26C          -10.0520745038       -0.1604283672        0.2049415441  MEMB      7               0.0000000000
       754         7  CHL1      C27           -11.7631216078        0.3007459400        1.9223853253  MEMB      7               0.0000000000
       755         7  CHL1      H27A          -12.4173972704        0.8843190503        2.5970942822  MEMB      7               0.0000000000
       756         7  CHL1      H27B          -11.4560892123        0.9193687918        1.0399279834  MEMB      7               0.0000000000
       757         7  CHL1      H27C          -12.4347586430       -0.4897297662        1.5724665572  MEMB      7               0.0000000000
       758         8  CHL1      C3             -4.9752013630        9.9878758055       17.2892977082  MEMB      8               0.0000000000
       759         8  CHL1      H3             -4.8651430984       11.0526777565       16.9673970389  MEMB      8               0.0000000000
       760         8  CHL1      O3             -4.9704233316        9.9379888162       18.7002881114  MEMB      8               0.0000000000
       761         8  CHL1      H3'            -4.3294918320       10.5942592228       19.0000352900  MEMB      8               0.0000000000
       762         8  CHL1      C4             -6.3167106760        9.4699798592       16.7273070492  MEMB      8               0.0000000000
       763         8  CHL1      H4A            -6.4942567088        8.4433429522       17.1016767240  MEMB      8               0.0000000000
       764         8  CHL1      H4B            -7.1626952459       10.0656092059       17.1319596243  MEMB      8               0.0000000000
       765         8  CHL1      C5             -6.2843160814        9.5265656718       15.2113807292  MEMB      8               0.0000000000
       766         8  CHL1      C6             -7.1207443251       10.3030177311       14.4976435987  MEMB      8               0.0000000000
       767         8  CHL1      H6             -7.9027345678       10.8905418077       14.9905748239  MEMB      8               0.0000000000
       768         8  CHL1      C7             -7.0925246702       10.3964235650       13.0042550712  MEMB      8               0.0000000000
       769         8  CHL1      H7A            -8.0921183750       10.2697217680       12.6059501291  MEMB      8               0.0000000000
       770         8  CHL1      H7B            -6.6654550693       11.3623589449       12.6525369679  MEMB      8               0.0000000000
       771         8  CHL1      C8             -6.3522331515        9.2380613632       12.3502245455  MEMB      8               0.0000000000
       772         8  CHL1      H8             -6.9696387736        8.3217593040       12.4878501044  MEMB      8               0.0000000000
       773         8  CHL1      C14            -6.1683553115        9.5286801415       10.8700630551  MEMB      8               0.0000000000
       774         8  CHL1      H14            -5.5777534500       10.4839925985       10.8224347766  MEMB      8               0.0000000000
       775         8  CHL1      C15            -7.4038007861        9.8034285368       10.0109507284  MEMB      8               0.0000000000
       776         8  CHL1      H15A           -8.3196810663        9.2291278390       10.2366517241  MEMB      8               0.0000000000
       777         8  CHL1      H15B           -7.6660604912       10.8188881562       10.2270620834  MEMB      8               0.0000000000
       778         8  CHL1      C16            -6.9159703370        9.5719632417        8.5803946746  MEMB      8               0.0000000000
       779         8  CHL1      H16A           -7.5965468843        8.8079169723        8.1545594161  MEMB      8               0.0000000000
       780         8  CHL1      H16B           -6.8777437646       10.4634340828        7.9302887567  MEMB      8               0.0000000000
       781         8  CHL1      C17            -5.4566621237        9.0667565531        8.6743931424  MEMB      8               0.0000000000
       782         8  CHL1      H17            -4.8174571940        9.9824601735        8.6106851420  MEMB      8               0.0000000000
       783         8  CHL1      C13            -5.3528074358        8.5116149681       10.1095077650  MEMB      8               0.0000000000
       784         8  CHL1      C18            -6.0453698269        7.1237059396       10.2607186945  MEMB      8               0.0000000000
       785         8  CHL1      H18A           -7.0874142840        7.0850334665        9.8886135106  MEMB      8               0.0000000000
       786         8  CHL1      H18B           -5.4514051998        6.3455140242        9.7469777873  MEMB      8               0.0000000000
       787         8  CHL1      H18C           -6.1042442755        6.8446843398       11.3316730664  MEMB      8               0.0000000000
       788         8  CHL1      C12            -3.9553190969        8.5413719079       10.7365214764  MEMB      8               0.0000000000
       789         8  CHL1      H12A           -3.3053229840        7.7734188208       10.2790444548  MEMB      8               0.0000000000
       790         8  CHL1      H12B           -3.4946236393        9.5393124846       10.5529350316  MEMB      8               0.0000000000
       791         8  CHL1      C11            -4.0268824992        8.2427992641       12.2449307863  MEMB      8               0.0000000000
       792         8  CHL1      H11A           -4.2591998556        7.1688283865       12.3714018457  MEMB      8               0.0000000000
       793         8  CHL1      H11B           -3.0406303781        8.4045186394       12.6806999352  MEMB      8               0.0000000000
       794         8  CHL1      C9             -5.0136379124        9.1147783741       13.0480164695  MEMB      8               0.0000000000
       795         8  CHL1      H9             -4.5992543208       10.1572472611       13.0138524878  MEMB      8               0.0000000000
       796         8  CHL1      C10            -5.1198180686        8.7501165329       14.5616520720  MEMB      8               0.0000000000
       797         8  CHL1      C19            -5.3600829579        7.2089630311       14.6956571312  MEMB      8               0.0000000000
       798         8  CHL1      H19A           -5.6262180811        6.8967089627       15.7236467683  MEMB      8               0.0000000000
       799         8  CHL1      H19B           -6.1854622115        6.8644188435       14.0418426668  MEMB      8               0.0000000000
       800         8  CHL1      H19C           -4.4483029404        6.6449202321       14.4105525632  MEMB      8               0.0000000000
       801         8  CHL1      C1             -3.7732974408        9.1652405718       15.2567026960  MEMB      8               0.0000000000
       802         8  CHL1      H1A            -2.9740612077        8.5190218218       14.8436774618  MEMB      8               0.0000000000
       803         8  CHL1      H1B            -3.5162746291       10.2123859988       14.9830242715  MEMB      8               0.0000000000
       804         8  CHL1      C2             -3.7755002664        9.1701930422       16.7939993320  MEMB      8               0.0000000000
       805         8  CHL1      H2A            -2.8516153103        9.6452884989       17.1974428858  MEMB      8               0.0000000000
       806         8  CHL1      H2B            -3.7851791532        8.1278655077       17.1783920022  MEMB      8               0.0000000000
       807         8  CHL1      C20            -5.0675721439        8.1848379860        7.4959442558  MEMB      8               0.0000000000
       808         8  CHL1      H20            -5.6709411224        7.2525925561        7.5543516946  MEMB      8               0.0000000000
       809         8  CHL1      C21            -3.5607526726        7.8000421053        7.4807834504  MEMB      8               0.0000000000
       810         8  CHL1      H21A           -2.8785274131        8.6493058928        7.6837037827  MEMB      8               0.0000000000
       811         8  CHL1      H21B           -3.2711940198        7.4027458702        6.4830435031  MEMB      8               0.0000000000
       812         8  CHL1      H21C           -3.3712049876        7.0068558235        8.2287200181  MEMB      8               0.0000000000
       813         8  CHL1      C22            -5.4778428412        8.7537668644        6.1341509280  MEMB      8               0.0000000000
       814         8  CHL1      H22A           -5.1765528902        7.9159424698        5.4651917662  MEMB      8               0.0000000000
       815         8  CHL1      H22B           -6.5788944239        8.8682218551        6.0226688811  MEMB      8               0.0000000000
       816         8  CHL1      C23            -4.8755999232       10.1086674173        5.7836601543  MEMB      8               0.0000000000
       817         8  CHL1      H23A           -5.3608887123       10.9372176205        6.3270195119  MEMB      8               0.0000000000
       818         8  CHL1      H23B           -3.7738445778       10.1479416463        5.9187942301  MEMB      8               0.0000000000
       819         8  CHL1      C24            -5.1795113653       10.3907367611        4.3850528845  MEMB      8               0.0000000000
       820         8  CHL1      H24A           -6.2802416776       10.5509723298        4.1705492420  MEMB      8               0.0000000000
       821         8  CHL1      H24B           -4.6274629931       11.2688080544        4.0134118649  MEMB      8               0.0000000000
       822         8  CHL1      C25            -4.6948004125        9.2667731260        3.5842011251  MEMB      8               0.0000000000
       823         8  CHL1      H25            -5.2884917292        8.2952884339        3.6369638886  MEMB      8               0.0000000000
       824         8  CHL1      C26            -5.1631569798        9.9838671470        2.5227381595  MEMB      8               0.0000000000
       825         8  CHL1      H26A           -4.9869896151        8.9926246672        2.0739008863  MEMB      8               0.0000000000
       826         8  CHL1      H26B           -6.2281606537       10.1385385462        2.2360782826  MEMB      8               0.0000000000
       827         8  CHL1      H26C           -4.5090132688       10.7609402919        2.0163763799  MEMB      8               0.0000000000
       828         8  CHL1      C27            -3.1923181234        9.0580254028        3.3134780742  MEMB      8               0.0000000000
       829         8  CHL1      H27A           -2.7361078774        9.9633538790        2.8488382907  MEMB      8               0.0000000000
       830         8  CHL1      H27B           -2.7235402306        8.8473163855        4.2832093366  MEMB      8               0.0000000000
       831         8  CHL1      H27C           -3.0249046212        8.2147554081        2.5980826669  MEMB      8               0.0000000000
       832         9  OSM       N              10.9723448241       -7.7838252192       21.2913785009  MEMB      9               0.0000000000
       833         9  OSM       C15            11.8025833133       -6.8857427072       20.3879016768  MEMB      9               0.0000000000
       834         9  OSM       H15A           11.2558586125       -6.4955336316       19.5279895388  MEMB      9               0.0000000000
       835         9  OSM       H15B           12.6585723766       -7.4007318793       19.9852687706  MEMB      9               0.0000000000
       836         9  OSM       H15C           12.1965203122       -6.0062133945       20.8988651465  MEMB      9               0.0000000000
       837         9  OSM       C14            10.1141895605       -8.6270314802       20.4375398299  MEMB      9               0.0000000000
       838         9  OSM       H14A            9.5739708499       -8.0142162216       19.7088800124  MEMB      9               0.0000000000
       839         9  OSM       H14B            9.3617502272       -9.1214939022       21.0331392314  MEMB      9               0.0000000000
       840         9  OSM       H14C           10.7324143452       -9.3470335973       19.9338741140  MEMB      9               0.0000000000
       841         9  OSM       C13            11.9253851190       -8.6797075908       21.9986863053  MEMB      9               0.0000000000
       842         9  OSM       H13A           12.6248540505       -8.0891178265       22.5829079248  MEMB      9               0.0000000000
       843         9  OSM       H13B           12.4856877906       -9.2006266559       21.2430664219  MEMB      9               0.0000000000
       844         9  OSM       H13C           11.4123066240       -9.3758508100       22.6475180958  MEMB      9               0.0000000000
       845         9  OSM       C12            10.1408478126       -7.0272308766       22.3267181356  MEMB      9               0.0000000000
       846         9  OSM       H12A           10.8350623900       -6.5639594683       23.0130225997  MEMB      9               0.0000000000
       847         9  OSM       H12B            9.6027626793       -7.7194481392       22.9802448969  MEMB      9               0.0000000000
       848         9  OSM       C11             9.0750000626       -5.9838079954       21.8678060199  MEMB      9               0.0000000000
       849         9  OSM       H11A            8.8216326803       -5.3730720745       22.7735851304  MEMB      9               0.0000000000
       850         9  OSM       H11B            8.1702007067       -6.5622124238       21.5618500996  MEMB      9               0.0000000000
       851         9  OSM       P               8.5683028196       -3.7899526859       20.5836880684  MEMB      9               0.0000000000
       852         9  OSM       O13             7.2691367527       -4.0274431828       21.2370981226  MEMB      9               0.0000000000
       853         9  OSM       O14             9.3887538140       -2.7007403498       21.1324754295  MEMB      9               0.0000000000
       854         9  OSM       O11             8.3990304579       -3.7536579056       19.0069132376  MEMB      9               0.0000000000
       855         9  OSM       O12             9.4692391131       -5.1204898970       20.7923252165  MEMB      9               0.0000000000
       856         9  OSM       C1S             9.4864084440       -4.0449496758       18.1441833775  MEMB      9               0.0000000000
       857         9  OSM       H1S             9.6318922056       -5.1410805867       18.1373217951  MEMB      9               0.0000000000
       858         9  OSM       H1T            10.4289791141       -3.5803913130       18.5144213404  MEMB      9               0.0000000000
       859         9  OSM       NF             10.0679643966       -4.2794947019       15.7336040183  MEMB      9               0.0000000000
       860         9  OSM       HNF            10.6142633356       -3.6592420815       15.1871364832  MEMB      9               0.0000000000
       861         9  OSM       C2S             9.0874399438       -3.7197155020       16.6669120481  MEMB      9               0.0000000000
       862         9  OSM       H2S             8.0880412749       -4.1418646997       16.4623229965  MEMB      9               0.0000000000
       863         9  OSM       C3S             8.8907586420       -2.1978525405       16.4645878187  MEMB      9               0.0000000000
       864         9  OSM       H3S             9.8853537952       -1.7616692816       16.8107679728  MEMB      9               0.0000000000
       865         9  OSM       O3              7.7470015209       -1.7877451594       17.1145990434  MEMB      9               0.0000000000
       866         9  OSM       HO3             7.5641186126       -2.4889882655       17.7391779170  MEMB      9               0.0000000000
       867         9  OSM       C4S             8.5913637720       -1.8592005317       15.0210842712  MEMB      9               0.0000000000
       868         9  OSM       H4S             7.8632565313       -2.5118780390       14.5712531537  MEMB      9               0.0000000000
       869         9  OSM       C5S             8.7692169721       -0.7171504508       14.3167457599  MEMB      9               0.0000000000
       870         9  OSM       H5S             9.4415089402        0.0836818883       14.7666920299  MEMB      9               0.0000000000
       871         9  OSM       C6S             8.5195314687       -0.7330606693       12.7983831555  MEMB      9               0.0000000000
       872         9  OSM       H6S             8.3029515579        0.3307244858       12.6954469294  MEMB      9               0.0000000000
       873         9  OSM       H6T             7.7991236533       -1.4996014194       12.5093545572  MEMB      9               0.0000000000
       874         9  OSM       C7S             9.5949020239       -1.0188122157       11.5730754384  MEMB      9               0.0000000000
       875         9  OSM       H7S            10.0857427635       -0.0288848340       11.4872670391  MEMB      9               0.0000000000
       876         9  OSM       H7T             9.3686964018       -0.5918584636       10.5829383472  MEMB      9               0.0000000000
       877         9  OSM       C8S            10.5568398978       -2.3671037929       11.5499898143  MEMB      9               0.0000000000
       878         9  OSM       H8S            11.3095682571       -2.6321006643       12.3144720639  MEMB      9               0.0000000000
       879         9  OSM       H8T            11.4195121403       -2.4144656357       10.8263959661  MEMB      9               0.0000000000
       880         9  OSM       C9S             9.9355860992       -3.5968251318       11.2065198304  MEMB      9               0.0000000000
       881         9  OSM       H9S             9.3061221716       -3.7413648215       12.1051631349  MEMB      9               0.0000000000
       882         9  OSM       H9T            10.7793447573       -4.3374304564       11.1230370130  MEMB      9               0.0000000000
       883         9  OSM       C10S            9.2689837725       -3.2538967519        9.9063329341  MEMB      9               0.0000000000
       884         9  OSM       H10S            8.5425786861       -2.4274609027       10.0575583445  MEMB      9               0.0000000000
       885         9  OSM       H10T            8.6892845326       -4.1431042406        9.6451258698  MEMB      9               0.0000000000
       886         9  OSM       C11S           10.2300365266       -2.8068999509        8.7915079295  MEMB      9               0.0000000000
       887         9  OSM       H11S           10.8609984756       -3.6656856228        8.4719195586  MEMB      9               0.0000000000
       888         9  OSM       H11T           10.9261890905       -1.9807406372        9.0668980178  MEMB      9               0.0000000000
       889         9  OSM       C12S            9.4467391079       -2.3483601869        7.6008791652  MEMB      9               0.0000000000
       890         9  OSM       H12S            8.9766548314       -1.3300717415        7.7123006079  MEMB      9               0.0000000000
       891         9  OSM       H12T            8.6351670519       -3.0820897287        7.4171004746  MEMB      9               0.0000000000
       892         9  OSM       C13S           10.3245753069       -2.4519435312        6.3714160322  MEMB      9               0.0000000000
       893         9  OSM       H13S           11.0660256497       -3.2370924608        6.2597387006  MEMB      9               0.0000000000
       894         9  OSM       H13T           10.9114659148       -1.5422023763        6.3959554102  MEMB      9               0.0000000000
       895         9  OSM       C14S            9.4424207704       -2.6566622442        5.1942893563  MEMB      9               0.0000000000
       896         9  OSM       H14S            8.7870059737       -1.8449807296        5.5878614393  MEMB      9               0.0000000000
       897         9  OSM       H14T            8.6234522573       -3.3747646789        5.1282581131  MEMB      9               0.0000000000
       898         9  OSM       C15S           10.1565522238       -2.5133416925        3.8105298902  MEMB      9               0.0000000000
       899         9  OSM       H15S           10.7760395884       -1.5946906262        3.6794869435  MEMB      9               0.0000000000
       900         9  OSM       H15T            9.3952362446       -2.4757072134        2.9856840789  MEMB      9               0.0000000000
       901         9  OSM       C16S           10.7915442599       -3.7006599323        3.3534525000  MEMB      9               0.0000000000
       902         9  OSM       H16S            9.9175373531       -4.3862320484        3.2355699636  MEMB      9               0.0000000000
       903         9  OSM       H16T           11.4464032079       -3.9484758822        4.2063659960  MEMB      9               0.0000000000
       904         9  OSM       C17S           11.4778870799       -3.3669126290        2.0642784591  MEMB      9               0.0000000000
       905         9  OSM       H17S           12.1620120666       -2.4895333032        2.1997733463  MEMB      9               0.0000000000
       906         9  OSM       H17T           10.7641863911       -3.0936483236        1.2425482297  MEMB      9               0.0000000000
       907         9  OSM       C18S           12.2462914756       -4.5983255052        1.7288529682  MEMB      9               0.0000000000
       908         9  OSM       H18S           12.9987724659       -4.8759623869        2.4835715184  MEMB      9               0.0000000000
       909         9  OSM       H18T           12.8365833620       -4.3144503911        0.8819631112  MEMB      9               0.0000000000
       910         9  OSM       H18U           11.5857381555       -5.4639120501        1.4860231762  MEMB      9               0.0000000000
       911         9  OSM       C1F            10.1380813166       -5.5842856567       15.5045140024  MEMB      9               0.0000000000
       912         9  OSM       OF              9.3569286963       -6.3636276702       16.0276480926  MEMB      9               0.0000000000
       913         9  OSM       C2F            11.1734018994       -6.0347349173       14.5484024636  MEMB      9               0.0000000000
       914         9  OSM       H2F            11.0736496003       -5.5186146912       13.5709159090  MEMB      9               0.0000000000
       915         9  OSM       H2G            11.0789192407       -7.1266699379       14.3732386809  MEMB      9               0.0000000000
       916         9  OSM       C3F            12.5558578147       -5.7404132408       15.0900539747  MEMB      9               0.0000000000
       917         9  OSM       H3F            12.7225793585       -6.1453828186       16.1159972532  MEMB      9               0.0000000000
       918         9  OSM       H3G            12.7877231730       -4.6510194208       15.0876829331  MEMB      9               0.0000000000
       919         9  OSM       C4F            13.5807969337       -6.4135001379       14.2068393276  MEMB      9               0.0000000000
       920         9  OSM       H4F            13.5867375573       -7.5045858750       14.2517796660  MEMB      9               0.0000000000
       921         9  OSM       H4G            14.4423835462       -6.0842624774       14.7668535334  MEMB      9               0.0000000000
       922         9  OSM       C5F            13.5512224955       -6.0420371325       12.7271749199  MEMB      9               0.0000000000
       923         9  OSM       H5F            13.1527620022       -4.9963985789       12.7514848888  MEMB      9               0.0000000000
       924         9  OSM       H5G            12.7696366060       -6.4693510322       12.1407291893  MEMB      9               0.0000000000
       925         9  OSM       C6F            14.8860143020       -6.4826463668       11.9820584156  MEMB      9               0.0000000000
       926         9  OSM       H6F            15.1829841834       -7.4809438091       12.2798518661  MEMB      9               0.0000000000
       927         9  OSM       H6G            15.5827688521       -6.0274292681       12.6475728924  MEMB      9               0.0000000000
       928         9  OSM       C7F            15.2740151527       -6.0802544743       10.4654624993  MEMB      9               0.0000000000
       929         9  OSM       H7F            16.3325640697       -6.1840366394       10.2115244975  MEMB      9               0.0000000000
       930         9  OSM       H7G            15.5087493781       -5.0290597819       10.1822127492  MEMB      9               0.0000000000
       931         9  OSM       C8F            14.1241921488       -6.0988024638        9.4972878150  MEMB      9               0.0000000000
       932         9  OSM       H8F            14.4475334030       -5.6771474832        8.5182041664  MEMB      9               0.0000000000
       933         9  OSM       H8G            13.3208422809       -5.4638674820        9.9051969196  MEMB      9               0.0000000000
       934         9  OSM       C9F            13.7790762576       -7.5182139053        9.4480268306  MEMB      9               0.0000000000
       935         9  OSM       H9F            14.6725974190       -8.0040080665        9.1333297094  MEMB      9               0.0000000000
       936         9  OSM       C10F           12.6529808595       -8.2082966672        9.6590582706  MEMB      9               0.0000000000
       937         9  OSM       H10F           12.6952696818       -9.3050774003        9.5832717418  MEMB      9               0.0000000000
       938         9  OSM       C11F           11.3382941617       -7.5940171318       10.0307343296  MEMB      9               0.0000000000
       939         9  OSM       H11F           11.4904357110       -6.9130445126       10.8796445530  MEMB      9               0.0000000000
       940         9  OSM       H11G           10.6006542939       -8.3434090239       10.3865551208  MEMB      9               0.0000000000
       941         9  OSM       C12F           10.8166186282       -6.6842384439        8.8991609158  MEMB      9               0.0000000000
       942         9  OSM       H12F           11.6451695756       -6.0186650646        8.5676721818  MEMB      9               0.0000000000
       943         9  OSM       H12G           10.0481419452       -6.0094702551        9.3243278812  MEMB      9               0.0000000000
       944         9  OSM       C13F           10.2223181183       -7.4106466626        7.6831402036  MEMB      9               0.0000000000
       945         9  OSM       H13F            9.3170869347       -7.9737831298        8.0076940328  MEMB      9               0.0000000000
       946         9  OSM       H13G           10.9716795270       -8.1159757312        7.2652715536  MEMB      9               0.0000000000
       947         9  OSM       C14F            9.8054687658       -6.4636388709        6.5510286883  MEMB      9               0.0000000000
       948         9  OSM       H14F           10.6578130110       -5.8105667400        6.2529127358  MEMB      9               0.0000000000
       949         9  OSM       H14G            8.9903571670       -5.8133464401        6.9450935441  MEMB      9               0.0000000000
       950         9  OSM       C15F            9.2185041814       -7.1877726638        5.3276413826  MEMB      9               0.0000000000
       951         9  OSM       H15F            8.7850159272       -6.4022061169        4.6680055471  MEMB      9               0.0000000000
       952         9  OSM       H15G            8.3967712806       -7.8638797786        5.6504396309  MEMB      9               0.0000000000
       953         9  OSM       C16F           10.1746967113       -8.0460960217        4.4884778513  MEMB      9               0.0000000000
       954         9  OSM       H16F           10.4393791025       -8.9594515673        5.0686241653  MEMB      9               0.0000000000
       955         9  OSM       H16G           11.1048884698       -7.4741793973        4.2813588656  MEMB      9               0.0000000000
       956         9  OSM       C17F            9.4868482004       -8.4345689620        3.1679490019  MEMB      9               0.0000000000
       957         9  OSM       H17F            9.0564651369       -7.5061891988        2.7201971018  MEMB      9               0.0000000000
       958         9  OSM       H17G            8.6306274144       -9.1055469663        3.4052660720  MEMB      9               0.0000000000
       959         9  OSM       C18F           10.3690080329       -9.0787791651        2.0942799782  MEMB      9               0.0000000000
       960         9  OSM       H18F            9.7904178584       -9.1060611858        1.1419594054  MEMB      9               0.0000000000
       961         9  OSM       H18G           10.6899531617      -10.1104462744        2.3488091204  MEMB      9               0.0000000000
       962         9  OSM       H18H           11.2890478448       -8.4760644555        1.9425423943  MEMB      9               0.0000000000
       963        10  SOPE      N              -8.4478193011        7.0115981667       22.1213595626  MEMB      10              0.0000000000
       964        10  SOPE      HN1            -8.9150523701        7.7958485548       21.5889809405  MEMB      10              0.0000000000
       965        10  SOPE      HN2            -7.9194001311        7.4160120978       22.9332174507  MEMB      10              0.0000000000
       966        10  SOPE      HN3            -7.7971976471        6.5538780485       21.4671651897  MEMB      10              0.0000000000
       967        10  SOPE      C12            -9.5513097282        6.1080162757       22.6232376268  MEMB      10              0.0000000000
       968        10  SOPE      H12A          -10.1696616392        6.6794994459       23.3407467510  MEMB      10              0.0000000000
       969        10  SOPE      H12B           -9.0562352346        5.2849765181       23.1776450674  MEMB      10              0.0000000000
       970        10  SOPE      C11           -10.4378219272        5.5242063869       21.4954592334  MEMB      10              0.0000000000
       971        10  SOPE      H11A          -11.1073009833        4.7488634202       21.9448711810  MEMB      10              0.0000000000
       972        10  SOPE      H11B           -9.7555472883        5.0045341899       20.7883634199  MEMB      10              0.0000000000
       973        10  SOPE      P             -12.7356504582        6.1845714785       20.4140414324  MEMB      10              0.0000000000
       974        10  SOPE      O13           -13.6081842337        6.4258987647       21.5823025109  MEMB      10              0.0000000000
       975        10  SOPE      O14           -12.7489648964        4.8431936515       19.8049020841  MEMB      10              0.0000000000
       976        10  SOPE      O12           -11.2018763469        6.5131814805       20.7970818575  MEMB      10              0.0000000000
       977        10  SOPE      O11           -13.0882611853        7.2966494906       19.3517764869  MEMB      10              0.0000000000
       978        10  SOPE      C1            -12.2546768413        7.4430575585       18.2119214263  MEMB      10              0.0000000000
       979        10  SOPE      HA            -11.8222919795        6.4661983046       17.8899704269  MEMB      10              0.0000000000
       980        10  SOPE      HB            -11.4265332044        8.1436522203       18.4380635832  MEMB      10              0.0000000000
       981        10  SOPE      C2            -13.0490646958        8.0059130047       17.0229856667  MEMB      10              0.0000000000
       982        10  SOPE      HS            -13.2860987752        9.0700784480       17.2759306296  MEMB      10              0.0000000000
       983        10  SOPE      O21           -14.2664293839        7.2636047978       16.9202369531  MEMB      10              0.0000000000
       984        10  SOPE      C21           -15.0626129029        7.5633541221       15.9560191464  MEMB      10              0.0000000000
       985        10  SOPE      O22           -14.9521230053        8.4732023857       15.1475284513  MEMB      10              0.0000000000
       986        10  SOPE      C22           -16.1718340704        6.5528790013       15.9831214112  MEMB      10              0.0000000000
       987        10  SOPE      H2R           -16.6729597889        6.4574355045       16.9640602634  MEMB      10              0.0000000000
       988        10  SOPE      H2S           -15.6801987437        5.5688649662       15.7731838690  MEMB      10              0.0000000000
       989        10  SOPE      C3            -12.1779527308        7.9206100761       15.7264154536  MEMB      10              0.0000000000
       990        10  SOPE      HX            -11.1740739637        8.3290075609       15.9945768410  MEMB      10              0.0000000000
       991        10  SOPE      HY            -12.5897049216        8.6130908512       14.9597119931  MEMB      10              0.0000000000
       992        10  SOPE      O31           -12.1316923371        6.5853159741       15.1542039873  MEMB      10              0.0000000000
       993        10  SOPE      C31           -10.9778858703        5.9308138439       15.2617854682  MEMB      10              0.0000000000
       994        10  SOPE      O32           -10.0244853036        6.2870575991       15.9303793726  MEMB      10              0.0000000000
       995        10  SOPE      C32           -10.9452259394        4.7290485981       14.3540535181  MEMB      10              0.0000000000
       996        10  SOPE      H2X           -10.9276535738        5.0824706497       13.3028357703  MEMB      10              0.0000000000
       997        10  SOPE      H2Y           -11.8275935600        4.0649499019       14.5121515477  MEMB      10              0.0000000000
       998        10  SOPE      C23           -17.2260038890        6.9980434247       14.9513830879  MEMB      10              0.0000000000
       999        10  SOPE      H3R           -17.6633284977        7.9293188725       15.1906620597  MEMB      10              0.0000000000
      1000        10  SOPE      H3S           -18.1884185001        6.4762001004       15.1344987802  MEMB      10              0.0000000000
      1001        10  SOPE      C24           -16.6746031331        6.7668252450       13.5352558057  MEMB      10              0.0000000000
      1002        10  SOPE      H4R           -15.6862509224        7.1584934583       13.2877480169  MEMB      10              0.0000000000
      1003        10  SOPE      H4S           -16.2804505410        5.7341642206       13.5456830125  MEMB      10              0.0000000000
      1004        10  SOPE      C25           -17.6127218992        7.0365946320       12.3680614101  MEMB      10              0.0000000000
      1005        10  SOPE      H5R           -18.6894285143        6.6991157224       12.5199054650  MEMB      10              0.0000000000
      1006        10  SOPE      H5S           -17.7572063726        8.0403134846       12.0680924502  MEMB      10              0.0000000000
      1007        10  SOPE      C26           -17.0374383722        6.3373747159       11.1565565182  MEMB      10              0.0000000000
      1008        10  SOPE      H6R           -16.6834935540        5.2949963391       11.3374072640  MEMB      10              0.0000000000
      1009        10  SOPE      H6S           -17.9533975288        6.4303573879       10.5547649154  MEMB      10              0.0000000000
      1010        10  SOPE      C27           -16.0776247764        6.9458647632       10.1701635748  MEMB      10              0.0000000000
      1011        10  SOPE      H7R           -16.3921488345        8.0055008357       10.1748975188  MEMB      10              0.0000000000
      1012        10  SOPE      H7S           -15.0938253413        6.7797602746       10.6410609428  MEMB      10              0.0000000000
      1013        10  SOPE      C28           -16.0206698715        6.4132066938        8.6888899240  MEMB      10              0.0000000000
      1014        10  SOPE      H8R           -16.9322247264        6.6627863812        8.0919904323  MEMB      10              0.0000000000
      1015        10  SOPE      H8S           -15.2488925135        7.0504008609        8.2373705017  MEMB      10              0.0000000000
      1016        10  SOPE      C29           -15.4288971800        5.0436759120        8.4366414006  MEMB      10              0.0000000000
      1017        10  SOPE      H91           -14.8377077214        4.6634272810        9.2660048220  MEMB      10              0.0000000000
      1018        10  SOPE      C210          -15.7771225365        4.1618728431        7.5085516372  MEMB      10              0.0000000000
      1019        10  SOPE      H101          -15.8252019416        3.0870587351        7.8225527274  MEMB      10              0.0000000000
      1020        10  SOPE      C211          -16.8898133668        4.4236728125        6.5474467174  MEMB      10              0.0000000000
      1021        10  SOPE      H11R          -17.8129120502        4.9814762575        6.8557349698  MEMB      10              0.0000000000
      1022        10  SOPE      H11S          -17.0719002105        3.3546062157        6.4353380506  MEMB      10              0.0000000000
      1023        10  SOPE      C212          -16.8406385860        4.8846778316        5.2212741961  MEMB      10              0.0000000000
      1024        10  SOPE      H12R          -17.0459141430        5.9879408105        5.2311036620  MEMB      10              0.0000000000
      1025        10  SOPE      H12S          -17.6463179070        4.3809521955        4.6286343236  MEMB      10              0.0000000000
      1026        10  SOPE      C213          -15.4976204965        4.5325512324        4.8125789126  MEMB      10              0.0000000000
      1027        10  SOPE      H13R          -15.3633212395        3.4558865665        4.5530937559  MEMB      10              0.0000000000
      1028        10  SOPE      H13S          -14.6469896964        4.8776301473        5.4628980105  MEMB      10              0.0000000000
      1029        10  SOPE      C214          -15.5910702457        5.4439292917        3.7165412622  MEMB      10              0.0000000000
      1030        10  SOPE      H14R          -14.4713663282        5.4362410979        3.6302107913  MEMB      10              0.0000000000
      1031        10  SOPE      H14S          -15.8291588163        6.5008090666        3.8663053102  MEMB      10              0.0000000000
      1032        10  SOPE      C215          -16.6430865366        4.9933416181        2.6378819341  MEMB      10              0.0000000000
      1033        10  SOPE      H15R          -17.4351218991        4.2648141649        2.7248796288  MEMB      10              0.0000000000
      1034        10  SOPE      H15S          -16.2486255155        3.9203199017        2.6847330951  MEMB      10              0.0000000000
      1035        10  SOPE      C216          -16.7001785241        5.7700101837        1.2165919483  MEMB      10              0.0000000000
      1036        10  SOPE      H16R          -16.0280884940        5.5743439261        0.4428193492  MEMB      10              0.0000000000
      1037        10  SOPE      H16S          -15.8316498470        5.9512654456        0.4520593948  MEMB      10              0.0000000000
      1038        10  SOPE      C217          -17.5406048625        6.6649480565        0.9037505447  MEMB      10              0.0000000000
      1039        10  SOPE      H17R          -17.3340716521        7.3774906044        1.7308122504  MEMB      10              0.0000000000
      1040        10  SOPE      H17S          -18.4403615049        6.0656255699        0.7846107841  MEMB      10              0.0000000000
      1041        10  SOPE      C218          -17.0232223306        7.1400520871       -0.3361436339  MEMB      10              0.0000000000
      1042        10  SOPE      H18R          -15.9755772297        7.5813076888       -0.2089197836  MEMB      10              0.0000000000
      1043        10  SOPE      H18S          -17.8690499879        7.7499476320       -0.2408611383  MEMB      10              0.0000000000
      1044        10  SOPE      H18T          -16.9729032651        6.7163409796       -1.3480302933  MEMB      10              0.0000000000
      1045        10  SOPE      C33            -9.6009487490        4.0233506713       14.5955390278  MEMB      10              0.0000000000
      1046        10  SOPE      H3X            -9.4762943465        3.6411454527       15.6345293331  MEMB      10              0.0000000000
      1047        10  SOPE      H3Y            -8.7346401456        4.5628808492       14.1599566847  MEMB      10              0.0000000000
      1048        10  SOPE      C34            -9.5404539391        2.8123435192       13.8114379575  MEMB      10              0.0000000000
      1049        10  SOPE      H4X           -10.6113356863        2.5570214045       13.9034661845  MEMB      10              0.0000000000
      1050        10  SOPE      H4Y            -8.8050785039        2.0642058986       14.2212201432  MEMB      10              0.0000000000
      1051        10  SOPE      C35            -9.3652801462        3.0769105923       12.3960958768  MEMB      10              0.0000000000
      1052        10  SOPE      H5X            -8.3050446407        3.1045713657       12.0909216012  MEMB      10              0.0000000000
      1053        10  SOPE      H5Y           -10.1541972884        3.7190081504       11.9270195740  MEMB      10              0.0000000000
      1054        10  SOPE      C36            -9.6984383462        1.9888772353       11.6234381426  MEMB      10              0.0000000000
      1055        10  SOPE      H6X            -9.1286920276        1.0643024105       11.8484559687  MEMB      10              0.0000000000
      1056        10  SOPE      H6Y            -9.2540314158        2.2154609008       10.6549630097  MEMB      10              0.0000000000
      1057        10  SOPE      C37           -11.1803633924        1.7251095508       11.6537414042  MEMB      10              0.0000000000
      1058        10  SOPE      H7X           -11.0517161873        1.0221365884       12.4353741727  MEMB      10              0.0000000000
      1059        10  SOPE      H7Y           -11.4617268980        1.0568851479       10.9127620120  MEMB      10              0.0000000000
      1060        10  SOPE      C38           -12.4553850023        2.3249405885       11.0357208945  MEMB      10              0.0000000000
      1061        10  SOPE      H8X           -12.5037344891        3.1138872594       11.7629441940  MEMB      10              0.0000000000
      1062        10  SOPE      H8Y           -13.3772557358        1.6653062291       11.1093510300  MEMB      10              0.0000000000
      1063        10  SOPE      C39           -12.3797946083        2.9338762575        9.6327790735  MEMB      10              0.0000000000
      1064        10  SOPE      H9X           -11.5946862723        3.6895029820        9.6277202594  MEMB      10              0.0000000000
      1065        10  SOPE      H9Y           -13.4099532139        3.2306513341        9.3134518354  MEMB      10              0.0000000000
      1066        10  SOPE      C310          -12.1477737209        2.1188841114        8.4404847165  MEMB      10              0.0000000000
      1067        10  SOPE      H10X          -12.5865173790        1.2079254472        8.8266671842  MEMB      10              0.0000000000
      1068        10  SOPE      H10Y          -11.4003069838        1.4512042654        8.1586117251  MEMB      10              0.0000000000
      1069        10  SOPE      C311          -11.7549710315        2.7922844231        7.1270986242  MEMB      10              0.0000000000
      1070        10  SOPE      H11X          -11.4043879698        3.7910260073        7.4005258653  MEMB      10              0.0000000000
      1071        10  SOPE      H11Y          -12.6510056500        2.8072122920        6.4794291410  MEMB      10              0.0000000000
      1072        10  SOPE      C312          -10.5282161681        2.1762454264        6.4089570119  MEMB      10              0.0000000000
      1073        10  SOPE      H12X          -11.0270409730        1.2740304644        6.0970037312  MEMB      10              0.0000000000
      1074        10  SOPE      H12Y           -9.6552942190        1.8885270735        7.0491849609  MEMB      10              0.0000000000
      1075        10  SOPE      C313          -10.1354737516        2.7992072011        5.0963780083  MEMB      10              0.0000000000
      1076        10  SOPE      H13X           -9.2208199138        2.2905847815        4.6945405658  MEMB      10              0.0000000000
      1077        10  SOPE      H13Y           -9.9546228746        3.8529162923        5.3579222452  MEMB      10              0.0000000000
      1078        10  SOPE      C314          -11.2636513350        2.6634366108        4.0712628277  MEMB      10              0.0000000000
      1079        10  SOPE      H14X          -12.2067060618        3.1037404071        4.4357565412  MEMB      10              0.0000000000
      1080        10  SOPE      H14Y          -11.5151339972        1.6061189670        4.0155301215  MEMB      10              0.0000000000
      1081        10  SOPE      C315          -10.8871612435        3.1673532507        2.6717929729  MEMB      10              0.0000000000
      1082        10  SOPE      H15X          -10.0204805770        2.6239433457        2.2614885649  MEMB      10              0.0000000000
      1083        10  SOPE      H15Y          -10.6397367965        4.2426680493        2.7783089180  MEMB      10              0.0000000000
      1084        10  SOPE      C316          -12.0126520662        3.1402399848        1.6549768517  MEMB      10              0.0000000000
      1085        10  SOPE      H16X          -12.7976861730        3.3667369651        2.3344982102  MEMB      10              0.0000000000
      1086        10  SOPE      H16Y          -12.6186107599        2.3146531347        1.3039885471  MEMB      10              0.0000000000
      1087        10  SOPE      C317          -11.6999101824        3.7946695061        0.3177424157  MEMB      10              0.0000000000
      1088        10  SOPE      H17X          -11.2567646037        4.7604458542        0.5597323781  MEMB      10              0.0000000000
      1089        10  SOPE      H17Y          -12.5912640959        3.9013280628       -0.3485108734  MEMB      10              0.0000000000
      1090        10  SOPE      C318          -10.7715315542        3.0054163750       -0.5475323075  MEMB      10              0.0000000000
      1091        10  SOPE      H18X          -10.6753857011        3.4735308488       -1.5526340233  MEMB      10              0.0000000000
      1092        10  SOPE      H18Y          -11.2248625613        2.0284528190       -0.6291538739  MEMB      10              0.0000000000
      1093        10  SOPE      H18Z           -9.8133183960        2.7911214429       -0.0647614063  MEMB      10              0.0000000000
      1094        11  OSM       N              10.8673771010       10.5561518213       21.9327671992  MEMB      11              0.0000000000
      1095        11  OSM       C15            12.0784243279       10.7639214911       22.7867577843  MEMB      11              0.0000000000
      1096        11  OSM       H15A           12.8672118072       10.0631683301       22.5049669011  MEMB      11              0.0000000000
      1097        11  OSM       H15B           11.8384587447       10.6351296373       23.8229479753  MEMB      11              0.0000000000
      1098        11  OSM       H15C           12.5027206152       11.7549420290       22.6594686432  MEMB      11              0.0000000000
      1099        11  OSM       C14             9.8459840566       11.6010260988       22.2401050678  MEMB      11              0.0000000000
      1100        11  OSM       H14A            9.9911802142       12.5082220160       21.6688000238  MEMB      11              0.0000000000
      1101        11  OSM       H14B            9.8035436301       11.8091386617       23.2960793526  MEMB      11              0.0000000000
      1102        11  OSM       H14C            8.8714903333       11.2405103292       21.8805647790  MEMB      11              0.0000000000
      1103        11  OSM       C13            11.1886954629       10.5819506487       20.5008600365  MEMB      11              0.0000000000
      1104        11  OSM       H13A           12.0062150903        9.8895394582       20.2612127370  MEMB      11              0.0000000000
      1105        11  OSM       H13B           11.6073385118       11.5165325282       20.1814897828  MEMB      11              0.0000000000
      1106        11  OSM       H13C           10.3583423649       10.3784269035       19.8307634783  MEMB      11              0.0000000000
      1107        11  OSM       C12            10.3469680661        9.1544503707       22.1284123653  MEMB      11              0.0000000000
      1108        11  OSM       H12A            9.8902727601        9.1237662567       23.0956610279  MEMB      11              0.0000000000
      1109        11  OSM       H12B           11.1917175927        8.4674114819       22.0406722517  MEMB      11              0.0000000000
      1110        11  OSM       C11             9.2897492112        8.6896341411       21.1060356121  MEMB      11              0.0000000000
      1111        11  OSM       H11A            8.9497211138        7.6750039220       21.3913438303  MEMB      11              0.0000000000
      1112        11  OSM       H11B            9.7669742215        8.6082042825       20.0958226955  MEMB      11              0.0000000000
      1113        11  OSM       P               6.9500106500        9.3589724885       20.1450515668  MEMB      11              0.0000000000
      1114        11  OSM       O13             6.1040330993        8.3208766904       20.7548937409  MEMB      11              0.0000000000
      1115        11  OSM       O14             6.3583729716       10.6471720258       19.7542523643  MEMB      11              0.0000000000
      1116        11  OSM       O11             7.6370021607        8.6896864645       18.8811504345  MEMB      11              0.0000000000
      1117        11  OSM       O12             8.1882840637        9.5847651431       21.1218761949  MEMB      11              0.0000000000
      1118        11  OSM       C1S             8.0970866776        9.5645689378       17.8580067706  MEMB      11              0.0000000000
      1119        11  OSM       H1S             8.8258498307       10.2943368245       18.2792562037  MEMB      11              0.0000000000
      1120        11  OSM       H1T             7.2893927469       10.2081642639       17.4346212733  MEMB      11              0.0000000000
      1121        11  OSM       NF              9.3997565601        9.3587232400       15.8071935633  MEMB      11              0.0000000000
      1122        11  OSM       HNF             9.0549317222        9.5132288377       14.8943907894  MEMB      11              0.0000000000
      1123        11  OSM       C2S             8.6274152891        8.6587425402       16.7276244345  MEMB      11              0.0000000000
      1124        11  OSM       H2S             9.3183677245        7.8780115346       17.1245394614  MEMB      11              0.0000000000
      1125        11  OSM       C3S             7.4911326667        8.0060115664       15.9580703856  MEMB      11              0.0000000000
      1126        11  OSM       H3S             6.8472368349        8.8242685198       15.5429152023  MEMB      11              0.0000000000
      1127        11  OSM       O3              6.6813859889        7.1396238624       16.7195249340  MEMB      11              0.0000000000
      1128        11  OSM       HO3             6.8755287609        7.4123072145       17.6293809143  MEMB      11              0.0000000000
      1129        11  OSM       C4S             8.1001636517        7.3083677186       14.7869903984  MEMB      11              0.0000000000
      1130        11  OSM       H4S             9.0250590066        6.7453014383       15.0080923627  MEMB      11              0.0000000000
      1131        11  OSM       C5S             7.7236248505        7.5101503139       13.5113003198  MEMB      11              0.0000000000
      1132        11  OSM       H5S             6.8893122000        8.1615409553       13.2445422629  MEMB      11              0.0000000000
      1133        11  OSM       C6S             8.3605464818        6.8110237483       12.3843803355  MEMB      11              0.0000000000
      1134        11  OSM       H6S             7.7612454044        6.8291838439       11.4404755527  MEMB      11              0.0000000000
      1135        11  OSM       H6T             8.4112532373        5.8382178290       12.8651469150  MEMB      11              0.0000000000
      1136        11  OSM       C7S             9.8463597074        7.0019160544       12.1955405155  MEMB      11              0.0000000000
      1137        11  OSM       H7S            10.3701495332        6.4815650883       13.0399862614  MEMB      11              0.0000000000
      1138        11  OSM       H7T             9.9875506946        8.0903287717       12.2882590815  MEMB      11              0.0000000000
      1139        11  OSM       C8S            10.4464118976        6.4404122129       10.8983137316  MEMB      11              0.0000000000
      1140        11  OSM       H8S            10.4093759511        5.3490021888       10.8214551470  MEMB      11              0.0000000000
      1141        11  OSM       H8T            11.5108169020        6.5576023509       11.0667093225  MEMB      11              0.0000000000
      1142        11  OSM       C9S             9.9926654121        7.1294751678        9.6022387315  MEMB      11              0.0000000000
      1143        11  OSM       H9S            10.2573083034        8.2083298153        9.6900459259  MEMB      11              0.0000000000
      1144        11  OSM       H9T             8.9258546389        6.9846372885        9.3723680977  MEMB      11              0.0000000000
      1145        11  OSM       C10S           10.5684084863        6.5865763224        8.3209311399  MEMB      11              0.0000000000
      1146        11  OSM       H10S           10.3007974345        5.5440364323        8.0768748480  MEMB      11              0.0000000000
      1147        11  OSM       H10T           11.5677046443        6.3601291535        8.5958529399  MEMB      11              0.0000000000
      1148        11  OSM       C11S           10.4666389169        7.5974415353        7.1515776054  MEMB      11              0.0000000000
      1149        11  OSM       H11S           10.6929343854        8.6326884882        7.4184494390  MEMB      11              0.0000000000
      1150        11  OSM       H11T            9.4700145048        7.4709710294        6.6870403787  MEMB      11              0.0000000000
      1151        11  OSM       C12S           11.5107033517        7.4440089137        6.0903224268  MEMB      11              0.0000000000
      1152        11  OSM       H12S           11.4138241534        6.3758537518        6.2860790668  MEMB      11              0.0000000000
      1153        11  OSM       H12T           12.5470049372        7.6363202734        6.3338249463  MEMB      11              0.0000000000
      1154        11  OSM       C13S           11.1609642889        7.9403348919        4.6561313514  MEMB      11              0.0000000000
      1155        11  OSM       H13S           10.9092935916        8.9977356368        4.7817673753  MEMB      11              0.0000000000
      1156        11  OSM       H13T           10.2897800406        7.3287558307        4.3224263328  MEMB      11              0.0000000000
      1157        11  OSM       C14S           12.2016034300        7.8542137054        3.4958175703  MEMB      11              0.0000000000
      1158        11  OSM       H14S           12.3247775973        6.8664776311        3.0278278953  MEMB      11              0.0000000000
      1159        11  OSM       H14T           13.2154648389        8.1345562357        3.8418208484  MEMB      11              0.0000000000
      1160        11  OSM       C15S           11.7521168664        8.5003281920        2.2001002027  MEMB      11              0.0000000000
      1161        11  OSM       H15S           12.5528641926        8.2774920178        1.4510645589  MEMB      11              0.0000000000
      1162        11  OSM       H15T           11.6988915654        9.5777700114        2.4351644173  MEMB      11              0.0000000000
      1163        11  OSM       C16S           10.4112048388        7.9656740504        1.6624517424  MEMB      11              0.0000000000
      1164        11  OSM       H16S            9.6284416667        7.9888083330        2.4540984879  MEMB      11              0.0000000000
      1165        11  OSM       H16T           10.4520223890        6.8930597946        1.3838685573  MEMB      11              0.0000000000
      1166        11  OSM       C17S            9.9196373133        8.7405200740        0.4316654964  MEMB      11              0.0000000000
      1167        11  OSM       H17S            9.6042425629        9.7540165342        0.7668416959  MEMB      11              0.0000000000
      1168        11  OSM       H17T            9.0435904132        8.1685583050        0.0459390174  MEMB      11              0.0000000000
      1169        11  OSM       C18S           10.8612118962        8.9263167953       -0.7634182392  MEMB      11              0.0000000000
      1170        11  OSM       H18S           10.2776129634        9.3702225087       -1.5998930801  MEMB      11              0.0000000000
      1171        11  OSM       H18T           11.2541298861        7.9496564084       -1.1097743122  MEMB      11              0.0000000000
      1172        11  OSM       H18U           11.7054414751        9.6128108784       -0.5424009249  MEMB      11              0.0000000000
      1173        11  OSM       C1F            10.4024256455       10.0159691764       16.1349514920  MEMB      11              0.0000000000
      1174        11  OSM       OF             10.8207279440       10.0583801872       17.2734752832  MEMB      11              0.0000000000
      1175        11  OSM       C2F            10.8924618132       10.7097519301       14.9677737105  MEMB      11              0.0000000000
      1176        11  OSM       H2F            10.6997415490       10.1180904960       14.0170405153  MEMB      11              0.0000000000
      1177        11  OSM       H2G            11.5877282820       11.5343424964       15.2521296909  MEMB      11              0.0000000000
      1178        11  OSM       C3F            10.0217418627       11.5192752195       14.0410158493  MEMB      11              0.0000000000
      1179        11  OSM       H3F            10.0410170231       12.4939596173       14.5251307928  MEMB      11              0.0000000000
      1180        11  OSM       H3G             8.9746294613       11.1095292590       14.1769067251  MEMB      11              0.0000000000
      1181        11  OSM       C4F            10.9278440007       11.8734328439       12.7665092284  MEMB      11              0.0000000000
      1182        11  OSM       H4F            11.7486248174       11.3863925159       12.2222646550  MEMB      11              0.0000000000
      1183        11  OSM       H4G            11.6054425010       12.5984816393       13.2154723412  MEMB      11              0.0000000000
      1184        11  OSM       C5F            10.2638595853       12.5383642379       11.6356446925  MEMB      11              0.0000000000
      1185        11  OSM       H5F            10.0933767907       13.5271284281       12.1065841977  MEMB      11              0.0000000000
      1186        11  OSM       H5G             9.4400682795       11.8086459771       11.5269791254  MEMB      11              0.0000000000
      1187        11  OSM       C6F            10.9880109089       12.7265641321       10.2979282724  MEMB      11              0.0000000000
      1188        11  OSM       H6F            11.9998166103       13.1190817319       10.4117669693  MEMB      11              0.0000000000
      1189        11  OSM       H6G            10.3871068341       13.4450072192        9.7204006589  MEMB      11              0.0000000000
      1190        11  OSM       C7F            11.1985851177       11.4671475633        9.4953969042  MEMB      11              0.0000000000
      1191        11  OSM       H7F            10.5353806455       10.6438364223        9.8317075147  MEMB      11              0.0000000000
      1192        11  OSM       H7G            12.2271971090       11.2477169784        9.7976602934  MEMB      11              0.0000000000
      1193        11  OSM       C8F            11.1959663135       11.5079609877        7.9695832300  MEMB      11              0.0000000000
      1194        11  OSM       H8F            11.4886828253       10.4981613822        7.6049676833  MEMB      11              0.0000000000
      1195        11  OSM       H8G            11.9568619094       12.2136590151        7.5644889072  MEMB      11              0.0000000000
      1196        11  OSM       C9F             9.7605986557       11.7634808973        7.6207563774  MEMB      11              0.0000000000
      1197        11  OSM       H9F             9.0858829498       11.8015310517        8.4905821059  MEMB      11              0.0000000000
      1198        11  OSM       C10F            9.2572742581       11.8768152433        6.3891787173  MEMB      11              0.0000000000
      1199        11  OSM       H10F            8.1784469193       12.0314652903        6.2671908723  MEMB      11              0.0000000000
      1200        11  OSM       C11F           10.0679754978       11.7664627791        5.1328518081  MEMB      11              0.0000000000
      1201        11  OSM       H11F           10.9920268308       11.1801416902        5.3458287828  MEMB      11              0.0000000000
      1202        11  OSM       H11G           10.3713961365       12.7841864560        4.8012657647  MEMB      11              0.0000000000
      1203        11  OSM       C12F            9.3627561596       11.1089902348        3.9229999462  MEMB      11              0.0000000000
      1204        11  OSM       H12F            9.0446332019       10.0799463404        4.1331887030  MEMB      11              0.0000000000
      1205        11  OSM       H12G           10.1333425343       11.1393521391        3.1100552434  MEMB      11              0.0000000000
      1206        11  OSM       C13F            8.2326112090       11.9048188813        3.2966933795  MEMB      11              0.0000000000
      1207        11  OSM       H13F            8.9336102869       12.7167479347        2.9788016447  MEMB      11              0.0000000000
      1208        11  OSM       H13G            7.4148520171       12.2491847259        3.9677186404  MEMB      11              0.0000000000
      1209        11  OSM       C14F            7.6670777396       11.4945149631        1.9500061769  MEMB      11              0.0000000000
      1210        11  OSM       H14F            7.4123409378       10.4478270930        1.9127084860  MEMB      11              0.0000000000
      1211        11  OSM       H14G            8.5196507490       11.6694902582        1.2410064935  MEMB      11              0.0000000000
      1212        11  OSM       C15F            6.2878839847       12.1553132348        1.6025689890  MEMB      11              0.0000000000
      1213        11  OSM       H15F            6.6666684860       12.8471616539        1.0633149204  MEMB      11              0.0000000000
      1214        11  OSM       H15G            5.9225268795       12.9523205537        2.2596331940  MEMB      11              0.0000000000
      1215        11  OSM       C16F            5.8521475617       12.1390941421        0.1036717526  MEMB      11              0.0000000000
      1216        11  OSM       H16F            5.0951681058       11.4339649812        0.1451521743  MEMB      11              0.0000000000
      1217        11  OSM       H16G            6.7254955474       11.9823190017       -0.5683580947  MEMB      11              0.0000000000
      1218        11  OSM       C17F            5.0985132179       13.2196912929       -0.6316182362  MEMB      11              0.0000000000
      1219        11  OSM       H17F            4.7842883510       12.8916937375       -1.6517719986  MEMB      11              0.0000000000
      1220        11  OSM       H17G            5.8456865709       13.9186910792       -0.8481628178  MEMB      11              0.0000000000
      1221        11  OSM       C18F            4.0773447706       13.9561559195        0.1650691212  MEMB      11              0.0000000000
      1222        11  OSM       H18F            3.6184204189       13.1707293553        0.7734888197  MEMB      11              0.0000000000
      1223        11  OSM       H18G            3.3611767611       14.4485228172       -0.5243562607  MEMB      11              0.0000000000
      1224        11  OSM       H18H            4.5250210533       14.7262977837        0.8345868415  MEMB      11              0.0000000000
      1225        12  CHL1      C3              1.5991850153       13.8281605569       17.3299927521  MEMB      12              0.0000000000
      1226        12  CHL1      H3              1.9369149192       12.7805306996       17.1416559503  MEMB      12              0.0000000000
      1227        12  CHL1      O3              1.6700074191       14.1682332077       18.6998781955  MEMB      12              0.0000000000
      1228        12  CHL1      H3'             1.4740300904       15.1111918367       18.6983502007  MEMB      12              0.0000000000
      1229        12  CHL1      C4              2.4351255422       14.8445027811       16.5665969166  MEMB      12              0.0000000000
      1230        12  CHL1      H4A             2.0710774179       15.8514326298       16.8696362820  MEMB      12              0.0000000000
      1231        12  CHL1      H4B             3.4953652419       14.7682438125       16.9133383414  MEMB      12              0.0000000000
      1232        12  CHL1      C5              2.3087424831       14.6443650286       15.0742532023  MEMB      12              0.0000000000
      1233        12  CHL1      C6              3.4079583534       14.5432326599       14.3456172698  MEMB      12              0.0000000000
      1234        12  CHL1      H6              4.3764900010       14.6522782687       14.8298895596  MEMB      12              0.0000000000
      1235        12  CHL1      C7              3.3867761193       14.2329555987       12.8946992550  MEMB      12              0.0000000000
      1236        12  CHL1      H7A             4.1234822470       14.8271301688       12.3310825542  MEMB      12              0.0000000000
      1237        12  CHL1      H7B             3.5935634385       13.1559060592       12.7964658519  MEMB      12              0.0000000000
      1238        12  CHL1      C8              2.0249597204       14.4405066979       12.2344461160  MEMB      12              0.0000000000
      1239        12  CHL1      H8              1.9384641307       15.5662215972       12.2151929578  MEMB      12              0.0000000000
      1240        12  CHL1      C14             2.0142454540       13.7660729676       10.8376369574  MEMB      12              0.0000000000
      1241        12  CHL1      H14             2.2046127110       12.7223543700       10.9150972446  MEMB      12              0.0000000000
      1242        12  CHL1      C15             3.0781624124       14.2077926843        9.8508166410  MEMB      12              0.0000000000
      1243        12  CHL1      H15A            3.1633043093       15.3287595896       10.0150208202  MEMB      12              0.0000000000
      1244        12  CHL1      H15B            4.0758141893       13.8342179904        9.9984621083  MEMB      12              0.0000000000
      1245        12  CHL1      C16             2.5160835851       13.5713725594        8.5266353661  MEMB      12              0.0000000000
      1246        12  CHL1      H16A            2.8816749107       14.2577928336        7.8237943555  MEMB      12              0.0000000000
      1247        12  CHL1      H16B            3.0541387374       12.8678041888        7.9014257298  MEMB      12              0.0000000000
      1248        12  CHL1      C17             0.9348370778       13.3131128333        8.5857126443  MEMB      12              0.0000000000
      1249        12  CHL1      H17             0.8720657718       12.2313176876        8.5529128923  MEMB      12              0.0000000000
      1250        12  CHL1      C13             0.6776420311       13.5472420193       10.0773200481  MEMB      12              0.0000000000
      1251        12  CHL1      C18             0.2537990919       14.7063902478       10.0325319145  MEMB      12              0.0000000000
      1252        12  CHL1      H18A            1.0621021847       15.2957970594        9.8310165441  MEMB      12              0.0000000000
      1253        12  CHL1      H18B           -0.5915643738       15.1230963987        9.4272874419  MEMB      12              0.0000000000
      1254        12  CHL1      H18C            0.3553604194       15.1697035620       11.0261912684  MEMB      12              0.0000000000
      1255        12  CHL1      C12            -0.4673886759       13.0785733539       10.9270904046  MEMB      12              0.0000000000
      1256        12  CHL1      H12A           -1.4254675495       13.2167444304       10.3975059953  MEMB      12              0.0000000000
      1257        12  CHL1      H12B           -0.1659587811       12.0579338763       10.8966712912  MEMB      12              0.0000000000
      1258        12  CHL1      C11            -0.5193192712       13.6943213020       12.3725827242  MEMB      12              0.0000000000
      1259        12  CHL1      H11A           -0.9729378584       14.6818955545       12.4029005529  MEMB      12              0.0000000000
      1260        12  CHL1      H11B           -1.2656330020       13.1517485376       12.9423174525  MEMB      12              0.0000000000
      1261        12  CHL1      C9              0.8882415148       13.8171131546       13.0613782498  MEMB      12              0.0000000000
      1262        12  CHL1      H9              1.1248178088       12.7495579738       13.1683208625  MEMB      12              0.0000000000
      1263        12  CHL1      C10             0.9071214250       14.3675142163       14.4779666438  MEMB      12              0.0000000000
      1264        12  CHL1      C19             0.2723006201       15.6623997909       14.4126600580  MEMB      12              0.0000000000
      1265        12  CHL1      H19A            0.1979349110       15.9067280492       15.4849866255  MEMB      12              0.0000000000
      1266        12  CHL1      H19B            0.8858028769       16.4181483661       13.8479633171  MEMB      12              0.0000000000
      1267        12  CHL1      H19C           -0.7969374932       15.7936052541       14.1973613267  MEMB      12              0.0000000000
      1268        12  CHL1      C1             -0.0122316475       13.5938123879       15.4197923216  MEMB      12              0.0000000000
      1269        12  CHL1      H1A            -1.0757777829       13.8085025365       15.1602728900  MEMB      12              0.0000000000
      1270        12  CHL1      H1B             0.2289038807       12.5403814341       15.2229015084  MEMB      12              0.0000000000
      1271        12  CHL1      C2              0.1461030696       13.9314206868       16.9073951705  MEMB      12              0.0000000000
      1272        12  CHL1      H2A            -0.4074095646       13.1695798775       17.4821373172  MEMB      12              0.0000000000
      1273        12  CHL1      H2B            -0.2630451127       14.9484780011       17.1360896720  MEMB      12              0.0000000000
      1274        12  CHL1      C20            -0.0396032174       13.7764418802        7.3701939067  MEMB      12              0.0000000000
      1275        12  CHL1      H20            -0.2050834958       14.8896788542        7.1870671980  MEMB      12              0.0000000000
      1276        12  CHL1      C21            -1.4989629012       13.6327752037        7.5010135959  MEMB      12              0.0000000000
      1277        12  CHL1      H21A           -1.9650383804       14.2313029889        6.6711648012  MEMB      12              0.0000000000
      1278        12  CHL1      H21B           -1.7021514640       14.1442457352        8.4440115383  MEMB      12              0.0000000000
      1279        12  CHL1      H21C           -1.8220152036       12.5946060053        7.5174892208  MEMB      12              0.0000000000
      1280        12  CHL1      C22             0.4338409565       13.2341263625        6.0450511343  MEMB      12              0.0000000000
      1281        12  CHL1      H22A            1.3418806914       12.6307480279        6.1991273469  MEMB      12              0.0000000000
      1282        12  CHL1      H22B           -0.4195569672       12.6272276255        5.7016812272  MEMB      12              0.0000000000
      1283        12  CHL1      C23             0.7233259911       14.1919697098        4.9341080751  MEMB      12              0.0000000000
      1284        12  CHL1      H23A           -0.0616995174       14.9975471290        4.8436747059  MEMB      12              0.0000000000
      1285        12  CHL1      H23B            1.7639169735       14.6071348169        4.9711658805  MEMB      12              0.0000000000
      1286        12  CHL1      C24             0.9272403991       13.5471161592        3.6530534865  MEMB      12              0.0000000000
      1287        12  CHL1      H24A            1.8699744331       12.9535716042        3.5977973326  MEMB      12              0.0000000000
      1288        12  CHL1      H24B            0.0638846656       12.8420164096        3.5371914292  MEMB      12              0.0000000000
      1289        12  CHL1      C25             1.1071259262       14.7388149233        2.6919385020  MEMB      12              0.0000000000
      1290        12  CHL1      H25             2.1483194499       15.0145166136        2.3806920532  MEMB      12              0.0000000000
      1291        12  CHL1      C26             1.0391693997       14.1385013098        1.5983267118  MEMB      12              0.0000000000
      1292        12  CHL1      H26A            0.8844289058       14.7014771564        0.6351855799  MEMB      12              0.0000000000
      1293        12  CHL1      H26B            1.8736809591       13.4006724939        1.4015689958  MEMB      12              0.0000000000
      1294        12  CHL1      H26C            0.0456686175       13.5618064412        1.7923782735  MEMB      12              0.0000000000
      1295        12  CHL1      C27            -0.0968005200       15.6335306832        2.3616415268  MEMB      12              0.0000000000
      1296        12  CHL1      H27A            0.1364181156       16.4505680923        3.0087562093  MEMB      12              0.0000000000
      1297        12  CHL1      H27B           -0.2511188150       15.9718165929        1.3013575316  MEMB      12              0.0000000000
      1298        12  CHL1      H27C           -1.0651689461       15.2096937232        2.6391119209  MEMB      12              0.0000000000
      1299        13  CHL1      C3             -4.3497182356      -13.7259943674       17.3490168082  MEMB      13              0.0000000000
      1300        13  CHL1      H3             -5.4326243231      -13.4826458714       17.4502960040  MEMB      13              0.0000000000
      1301        13  CHL1      O3             -3.8287435316      -14.0287540666       18.6312221719  MEMB      13              0.0000000000
      1302        13  CHL1      H3'            -3.7148198175      -13.1819880650       19.0995293195  MEMB      13              0.0000000000
      1303        13  CHL1      C4             -4.1816642411      -14.9437240132       16.4206755942  MEMB      13              0.0000000000
      1304        13  CHL1      H4A            -3.1264307612      -15.2424729758       16.4198273345  MEMB      13              0.0000000000
      1305        13  CHL1      H4B            -4.7519011066      -15.7915334383       16.8618761411  MEMB      13              0.0000000000
      1306        13  CHL1      C5             -4.5528983238      -14.7252388260       14.9815102096  MEMB      13              0.0000000000
      1307        13  CHL1      C6             -5.4051466974      -15.5816147626       14.3919285065  MEMB      13              0.0000000000
      1308        13  CHL1      H6             -5.7606843474      -16.4425202833       14.9743668678  MEMB      13              0.0000000000
      1309        13  CHL1      C7             -5.8590642607      -15.4854216300       12.9642407925  MEMB      13              0.0000000000
      1310        13  CHL1      H7A            -5.7966875951      -16.4753525188       12.4639999061  MEMB      13              0.0000000000
      1311        13  CHL1      H7B            -6.9272441066      -15.1804276679       12.9010061293  MEMB      13              0.0000000000
      1312        13  CHL1      C8             -5.0536044256      -14.3882947264       12.2146624595  MEMB      13              0.0000000000
      1313        13  CHL1      H8             -4.0574462632      -14.8025931695       11.9411675266  MEMB      13              0.0000000000
      1314        13  CHL1      C14            -5.7772784328      -14.0382888027       10.9457275679  MEMB      13              0.0000000000
      1315        13  CHL1      H14            -6.8402579912      -13.7452153045       11.1872057882  MEMB      13              0.0000000000
      1316        13  CHL1      C15            -5.8973623493      -15.1920867630        9.9761028710  MEMB      13              0.0000000000
      1317        13  CHL1      H15A           -5.0454480483      -15.8951904261        9.9093847329  MEMB      13              0.0000000000
      1318        13  CHL1      H15B           -6.6804112361      -15.8094828302       10.3978017610  MEMB      13              0.0000000000
      1319        13  CHL1      C16            -6.1416646359      -14.5023658388        8.6243960055  MEMB      13              0.0000000000
      1320        13  CHL1      H16A           -5.3190888936      -14.8553137589        7.9723445405  MEMB      13              0.0000000000
      1321        13  CHL1      H16B           -7.0695427581      -14.6977452565        8.0683331438  MEMB      13              0.0000000000
      1322        13  CHL1      C17            -6.0756493461      -12.9768667548        8.8942126497  MEMB      13              0.0000000000
      1323        13  CHL1      H17            -7.0937322962      -12.6452157814        9.2136060795  MEMB      13              0.0000000000
      1324        13  CHL1      C13            -5.1895397427      -12.8897239634       10.1549310715  MEMB      13              0.0000000000
      1325        13  CHL1      C18            -3.7262915946      -13.2239469704        9.7439226658  MEMB      13              0.0000000000
      1326        13  CHL1      H18A           -3.6510312093      -14.1400211288        9.1278345314  MEMB      13              0.0000000000
      1327        13  CHL1      H18B           -3.2962060247      -12.3902304404        9.1572214141  MEMB      13              0.0000000000
      1328        13  CHL1      H18C           -3.0789151966      -13.3768908436       10.6253503070  MEMB      13              0.0000000000
      1329        13  CHL1      C12            -5.2752722738      -11.6308373041       11.0427002824  MEMB      13              0.0000000000
      1330        13  CHL1      H12A           -4.8212013531      -10.7583061580       10.5479570902  MEMB      13              0.0000000000
      1331        13  CHL1      H12B           -6.3337300465      -11.3835297976       11.2726085748  MEMB      13              0.0000000000
      1332        13  CHL1      C11            -4.4867972698      -11.8312082816       12.3450907886  MEMB      13              0.0000000000
      1333        13  CHL1      H11A           -3.4130653583      -11.8201696817       12.0725981195  MEMB      13              0.0000000000
      1334        13  CHL1      H11B           -4.6365132812      -10.9450420586       12.9982157263  MEMB      13              0.0000000000
      1335        13  CHL1      C9             -4.8821552623      -13.1378387698       13.0970086886  MEMB      13              0.0000000000
      1336        13  CHL1      H9             -5.9153268546      -12.9417829095       13.4794659242  MEMB      13              0.0000000000
      1337        13  CHL1      C10            -4.0310916209      -13.4156469833       14.3514148296  MEMB      13              0.0000000000
      1338        13  CHL1      C19            -2.5314805384      -13.5426967795       13.9355318110  MEMB      13              0.0000000000
      1339        13  CHL1      H19A           -2.3425063958      -14.4624598372       13.3470201791  MEMB      13              0.0000000000
      1340        13  CHL1      H19B           -2.1755084009      -12.6879198003       13.3274165807  MEMB      13              0.0000000000
      1341        13  CHL1      H19C           -1.8912991557      -13.5869825719       14.8373093792  MEMB      13              0.0000000000
      1342        13  CHL1      C1             -4.2155283852      -12.2408451588       15.3720351983  MEMB      13              0.0000000000
      1343        13  CHL1      H1A            -3.8110997246      -11.3120782740       14.9308322243  MEMB      13              0.0000000000
      1344        13  CHL1      H1B            -5.3019747674      -12.0675270072       15.5463699133  MEMB      13              0.0000000000
      1345        13  CHL1      C2             -3.6544940920      -12.4881370184       16.7848814087  MEMB      13              0.0000000000
      1346        13  CHL1      H2A            -3.9036856444      -11.6245613837       17.4416206107  MEMB      13              0.0000000000
      1347        13  CHL1      H2B            -2.5526109066      -12.6324048535       16.7947307911  MEMB      13              0.0000000000
      1348        13  CHL1      C20            -5.6387994254      -12.2221292009        7.6297631558  MEMB      13              0.0000000000
      1349        13  CHL1      H20            -4.5966698693      -12.5441287259        7.4358376047  MEMB      13              0.0000000000
      1350        13  CHL1      C21            -5.6855876552      -10.6986434671        7.8800994595  MEMB      13              0.0000000000
      1351        13  CHL1      H21A           -5.0102842147      -10.3375684318        8.6693714661  MEMB      13              0.0000000000
      1352        13  CHL1      H21B           -6.7331327459      -10.4002984117        8.1133229005  MEMB      13              0.0000000000
      1353        13  CHL1      H21C           -5.3206896494      -10.1597875414        6.9903911604  MEMB      13              0.0000000000
      1354        13  CHL1      C22            -6.4102016655      -12.5861412123        6.3109325758  MEMB      13              0.0000000000
      1355        13  CHL1      H22A           -6.6772617865      -13.6487552090        6.2864580177  MEMB      13              0.0000000000
      1356        13  CHL1      H22B           -7.3748212350      -12.0286174190        6.3324800889  MEMB      13              0.0000000000
      1357        13  CHL1      C23            -5.5722569344      -12.4033952111        4.9922497978  MEMB      13              0.0000000000
      1358        13  CHL1      H23A           -4.9217783323      -11.5119629702        5.1706002999  MEMB      13              0.0000000000
      1359        13  CHL1      H23B           -4.8858722077      -13.2359265108        4.8486818914  MEMB      13              0.0000000000
      1360        13  CHL1      C24            -6.3394594831      -12.2663122737        3.6305859889  MEMB      13              0.0000000000
      1361        13  CHL1      H24A           -7.3350173327      -12.6728634491        3.3421288461  MEMB      13              0.0000000000
      1362        13  CHL1      H24B           -7.1404766277      -11.9570108570        4.2160854238  MEMB      13              0.0000000000
      1363        13  CHL1      C25            -5.5562309462      -11.1906978466        2.6627192864  MEMB      13              0.0000000000
      1364        13  CHL1      H25            -4.9721314175      -10.4640253567        3.2145997071  MEMB      13              0.0000000000
      1365        13  CHL1      C26            -4.3503144398      -11.7487323944        2.1164034826  MEMB      13              0.0000000000
      1366        13  CHL1      H26A           -5.1769019023      -12.3632000845        1.9861073013  MEMB      13              0.0000000000
      1367        13  CHL1      H26B           -4.1517772688      -11.6874278647        1.0345945473  MEMB      13              0.0000000000
      1368        13  CHL1      H26C           -3.8414399437      -12.4748258009        2.7566489123  MEMB      13              0.0000000000
      1369        13  CHL1      C27            -6.2120205588      -10.3279993434        1.5793674216  MEMB      13              0.0000000000
      1370        13  CHL1      H27A           -6.1085738808      -10.2695440707        0.4926787886  MEMB      13              0.0000000000
      1371        13  CHL1      H27B           -7.0310982985      -10.9863909473        1.2999069564  MEMB      13              0.0000000000
      1372        13  CHL1      H27C           -6.5734453370       -9.4000223785        2.0579535565  MEMB      13              0.0000000000
      1373        14  CHL1      C3            -10.5651949659       -9.6792583508       17.3105961675  MEMB      14              0.0000000000
      1374        14  CHL1      H3             -9.9112891805      -10.5361707659       17.0142048338  MEMB      14              0.0000000000
      1375        14  CHL1      O3            -10.8397981615       -9.6800954660       18.7025203312  MEMB      14              0.0000000000
      1376        14  CHL1      H3'            -9.9604996288       -9.6716144442       19.0816059494  MEMB      14              0.0000000000
      1377        14  CHL1      C4             -9.8822465392       -8.3836518907       16.8814641021  MEMB      14              0.0000000000
      1378        14  CHL1      H4A           -10.4920880590       -7.5323788815       17.2538164306  MEMB      14              0.0000000000
      1379        14  CHL1      H4B            -8.9058833446       -8.3201652063       17.3926560429  MEMB      14              0.0000000000
      1380        14  CHL1      C5             -9.6820416046       -8.3292974917       15.3802978394  MEMB      14              0.0000000000
      1381        14  CHL1      C6             -8.4860916786       -8.2656344866       14.8176124066  MEMB      14              0.0000000000
      1382        14  CHL1      H6             -7.6154857476       -8.2082722800       15.4755735887  MEMB      14              0.0000000000
      1383        14  CHL1      C7             -8.2860187029       -8.0210137774       13.3556297922  MEMB      14              0.0000000000
      1384        14  CHL1      H7A            -7.6162906710       -7.1655395237       13.3439266722  MEMB      14              0.0000000000
      1385        14  CHL1      H7B            -7.7868552906       -8.8611923365       12.8188551487  MEMB      14              0.0000000000
      1386        14  CHL1      C8             -9.5831707660       -7.6233488271       12.5939536433  MEMB      14              0.0000000000
      1387        14  CHL1      H8             -9.8341609147       -6.5656859160       12.8403754741  MEMB      14              0.0000000000
      1388        14  CHL1      C14            -9.4110539663       -7.8293892994       11.1103802184  MEMB      14              0.0000000000
      1389        14  CHL1      H14            -9.1697563860       -8.9219871694       11.0241518234  MEMB      14              0.0000000000
      1390        14  CHL1      C15            -8.2412846249       -7.1562779143       10.4581679851  MEMB      14              0.0000000000
      1391        14  CHL1      H15A           -8.1978939876       -6.0520003822       10.6166718954  MEMB      14              0.0000000000
      1392        14  CHL1      H15B           -7.2972185620       -7.6299655026       10.7906329574  MEMB      14              0.0000000000
      1393        14  CHL1      C16            -8.4646950700       -7.4664742910        8.9908191918  MEMB      14              0.0000000000
      1394        14  CHL1      H16A           -8.3490757655       -6.5054684161        8.4639752391  MEMB      14              0.0000000000
      1395        14  CHL1      H16B           -7.7333717225       -8.2185767516        8.6343726421  MEMB      14              0.0000000000
      1396        14  CHL1      C17            -9.9060118614       -8.0378437034        8.8327990096  MEMB      14              0.0000000000
      1397        14  CHL1      H17            -9.7792455585       -9.1442066137        8.8015556488  MEMB      14              0.0000000000
      1398        14  CHL1      C13           -10.5900695992       -7.6599126638       10.1545915594  MEMB      14              0.0000000000
      1399        14  CHL1      C18           -11.0583196987       -6.1837965644       10.0446114404  MEMB      14              0.0000000000
      1400        14  CHL1      H18A          -10.3126571158       -5.5908114075        9.4809250095  MEMB      14              0.0000000000
      1401        14  CHL1      H18B          -12.0286476289       -6.1374417307        9.4961105728  MEMB      14              0.0000000000
      1402        14  CHL1      H18C          -11.1730185613       -5.6957517574       11.0269630087  MEMB      14              0.0000000000
      1403        14  CHL1      C12           -11.7182822484       -8.5701728355       10.6176777761  MEMB      14              0.0000000000
      1404        14  CHL1      H12A          -12.6207428057       -8.3425793943       10.0129656287  MEMB      14              0.0000000000
      1405        14  CHL1      H12B          -11.4656540510       -9.6431541392       10.4905285527  MEMB      14              0.0000000000
      1406        14  CHL1      C11           -11.9652891065       -8.3119537353       12.1076933750  MEMB      14              0.0000000000
      1407        14  CHL1      H11A          -12.2265917242       -7.2359387086       12.1777328915  MEMB      14              0.0000000000
      1408        14  CHL1      H11B          -12.8353817995       -8.9251414384       12.4052603245  MEMB      14              0.0000000000
      1409        14  CHL1      C9            -10.7090511357       -8.5306070612       13.0144542876  MEMB      14              0.0000000000
      1410        14  CHL1      H9            -10.3475218538       -9.5785453952       12.8261221145  MEMB      14              0.0000000000
      1411        14  CHL1      C10           -10.9193162180       -8.3796732101       14.5425521692  MEMB      14              0.0000000000
      1412        14  CHL1      C19           -11.8201320300       -7.1551646920       14.8415691655  MEMB      14              0.0000000000
      1413        14  CHL1      H19A          -12.7606212002       -7.1608155072       14.2606174219  MEMB      14              0.0000000000
      1414        14  CHL1      H19B          -12.1289578673       -7.1489662725       15.9031473834  MEMB      14              0.0000000000
      1415        14  CHL1      H19C          -11.2926697871       -6.2046565900       14.6295316776  MEMB      14              0.0000000000
      1416        14  CHL1      C1            -11.5768239212       -9.6346280043       15.0475606871  MEMB      14              0.0000000000
      1417        14  CHL1      H1A           -12.4852939807       -9.3626731986       14.4892079198  MEMB      14              0.0000000000
      1418        14  CHL1      H1B           -11.2001695713      -10.6018994159       14.6442355943  MEMB      14              0.0000000000
      1419        14  CHL1      C2            -11.8515431344       -9.8061379242       16.5732457684  MEMB      14              0.0000000000
      1420        14  CHL1      H2A           -12.2715520452      -10.8159967006       16.8192383315  MEMB      14              0.0000000000
      1421        14  CHL1      H2B           -12.6139621592       -9.0802515002       16.9230007305  MEMB      14              0.0000000000
      1422        14  CHL1      C20           -10.5446944747       -7.5552783363        7.5306090997  MEMB      14              0.0000000000
      1423        14  CHL1      H20           -10.7659759136       -6.4783516578        7.6603822743  MEMB      14              0.0000000000
      1424        14  CHL1      C21           -11.8662685941       -8.2243166167        7.1034407534  MEMB      14              0.0000000000
      1425        14  CHL1      H21A          -12.7165546774       -7.5899294188        7.4308932220  MEMB      14              0.0000000000
      1426        14  CHL1      H21B          -11.9146092395       -9.2565968191        7.4948882849  MEMB      14              0.0000000000
      1427        14  CHL1      H21C          -11.9279350628       -8.3114826214        5.9910923514  MEMB      14              0.0000000000
      1428        14  CHL1      C22            -9.5937867923       -7.6162535389        6.3465317338  MEMB      14              0.0000000000
      1429        14  CHL1      H22A          -10.0844752792       -7.0239845445        5.5464896916  MEMB      14              0.0000000000
      1430        14  CHL1      H22B           -8.6237709373       -7.1189276585        6.5422514080  MEMB      14              0.0000000000
      1431        14  CHL1      C23            -9.3159885931       -9.0115205935        5.8440364752  MEMB      14              0.0000000000
      1432        14  CHL1      H23A           -8.5034657519       -9.4150898756        6.4945387647  MEMB      14              0.0000000000
      1433        14  CHL1      H23B          -10.1224667044       -9.7709182511        5.9213944486  MEMB      14              0.0000000000
      1434        14  CHL1      C24            -9.0953893962       -8.8951410289        4.3477709856  MEMB      14              0.0000000000
      1435        14  CHL1      H24A          -10.0214657103       -8.8774640599        3.7564693923  MEMB      14              0.0000000000
      1436        14  CHL1      H24B           -8.3912593981       -8.0855491379        4.0150644079  MEMB      14              0.0000000000
      1437        14  CHL1      C25            -8.4391105466      -10.0841712479        3.9419682628  MEMB      14              0.0000000000
      1438        14  CHL1      H25            -8.8478959996      -11.0328386368        4.3730873837  MEMB      14              0.0000000000
      1439        14  CHL1      C26            -8.8290520902      -10.3882872720        2.4474905687  MEMB      14              0.0000000000
      1440        14  CHL1      H26A           -8.5628957739      -11.4587558824        2.2262752105  MEMB      14              0.0000000000
      1441        14  CHL1      H26B           -9.7952226273      -10.2492587445        1.9845473766  MEMB      14              0.0000000000
      1442        14  CHL1      H26C           -8.3973166249       -9.6634029711        1.7393285308  MEMB      14              0.0000000000
      1443        14  CHL1      C27            -7.0425039535       -9.6735347761        4.6323173065  MEMB      14              0.0000000000
      1444        14  CHL1      H27A           -6.5909169501       -9.7287728202        5.6285835663  MEMB      14              0.0000000000
      1445        14  CHL1      H27B           -6.1948628050       -9.4688711885        4.0175515828  MEMB      14              0.0000000000
      1446        14  CHL1      H27C           -7.0201176327      -10.5637389709        5.2251160354  MEMB      14              0.0000000000
      1447        15  OSM       N              15.8571848488       -0.0457339872       20.7990022251  MEMB      15              0.0000000000
      1448        15  OSM       C15            14.7488285988       -0.2304664082       21.7801630528  MEMB      15              0.0000000000
      1449        15  OSM       H15A           13.8085450505       -0.5277262296       21.3318191930  MEMB      15              0.0000000000
      1450        15  OSM       H15B           14.5444370879        0.6758034768       22.3547869473  MEMB      15              0.0000000000
      1451        15  OSM       H15C           15.0316964546       -0.9723788486       22.5247935640  MEMB      15              0.0000000000
      1452        15  OSM       C14            15.3491395195        0.8741271141       19.7702175683  MEMB      15              0.0000000000
      1453        15  OSM       H14A           14.5584594549        0.3631619260       19.2177540261  MEMB      15              0.0000000000
      1454        15  OSM       H14B           16.0796736489        1.1575286813       19.0179125595  MEMB      15              0.0000000000
      1455        15  OSM       H14C           14.8897482219        1.7724088828       20.1614201525  MEMB      15              0.0000000000
      1456        15  OSM       C13            17.0311839497        0.5878438874       21.4815751898  MEMB      15              0.0000000000
      1457        15  OSM       H13A           16.8136989916        1.5278549239       21.9792440286  MEMB      15              0.0000000000
      1458        15  OSM       H13B           17.8138442971        0.7745622163       20.7577101943  MEMB      15              0.0000000000
      1459        15  OSM       H13C           17.4469865160       -0.1081275710       22.2086995006  MEMB      15              0.0000000000
      1460        15  OSM       C12            16.2900037019       -1.3659182413       20.1447063918  MEMB      15              0.0000000000
      1461        15  OSM       H12A           17.1488050995       -1.1499770159       19.5049244770  MEMB      15              0.0000000000
      1462        15  OSM       H12B           15.4586559363       -1.7140952695       19.5462958277  MEMB      15              0.0000000000
      1463        15  OSM       C11            16.7297488636       -2.5728049129       21.0325032203  MEMB      15              0.0000000000
      1464        15  OSM       H11A           16.9319537232       -3.5126037157       20.4684837290  MEMB      15              0.0000000000
      1465        15  OSM       H11B           15.8603549752       -2.8590514589       21.6584777294  MEMB      15              0.0000000000
      1466        15  OSM       P              19.3376564522       -2.3085122850       21.2715621987  MEMB      15              0.0000000000
      1467        15  OSM       O13            19.9061341784       -0.9735314327       21.5421325006  MEMB      15              0.0000000000
      1468        15  OSM       O14            20.0435386184       -3.4912580412       21.8240234850  MEMB      15              0.0000000000
      1469        15  OSM       O11            19.0627983272       -2.4554766738       19.7249008574  MEMB      15              0.0000000000
      1470        15  OSM       O12            17.8553618940       -2.2544010315       21.8449018955  MEMB      15              0.0000000000
      1471        15  OSM       C1S            19.9336395380       -3.2587169053       18.9155348417  MEMB      15              0.0000000000
      1472        15  OSM       H1S            20.1052696969       -4.2616751550       19.3757647329  MEMB      15              0.0000000000
      1473        15  OSM       H1T            20.9346327195       -2.7849618181       18.7947600495  MEMB      15              0.0000000000
      1474        15  OSM       NF             18.8546299181       -2.2008167814       16.9276294358  MEMB      15              0.0000000000
      1475        15  OSM       HNF            17.8890649203       -2.0622971344       16.8785420115  MEMB      15              0.0000000000
      1476        15  OSM       C2S            19.2275992658       -3.4660579583       17.5558381733  MEMB      15              0.0000000000
      1477        15  OSM       H2S            19.8936528229       -4.0226261700       16.8454177183  MEMB      15              0.0000000000
      1478        15  OSM       C3S            17.9853614086       -4.3588524680       17.8518293584  MEMB      15              0.0000000000
      1479        15  OSM       H3S            17.2812009502       -3.8831458489       18.5458918785  MEMB      15              0.0000000000
      1480        15  OSM       O3             18.2644709536       -5.6155915944       18.4469946737  MEMB      15              0.0000000000
      1481        15  OSM       HO3            19.2206580616       -5.7599162947       18.3509216865  MEMB      15              0.0000000000
      1482        15  OSM       C4S            17.2241983504       -4.5267580388       16.5719563063  MEMB      15              0.0000000000
      1483        15  OSM       H4S            16.1845727264       -4.1818430437       16.5104337435  MEMB      15              0.0000000000
      1484        15  OSM       C5S            17.7546674805       -5.1428573455       15.5319567260  MEMB      15              0.0000000000
      1485        15  OSM       H5S            18.6575078319       -5.7338986223       15.7221794983  MEMB      15              0.0000000000
      1486        15  OSM       C6S            17.0735345282       -5.3677160107       14.2292387409  MEMB      15              0.0000000000
      1487        15  OSM       H6S            16.0890260950       -5.6507224742       14.5112401830  MEMB      15              0.0000000000
      1488        15  OSM       H6T            17.3810346947       -6.2606768674       13.6290606853  MEMB      15              0.0000000000
      1489        15  OSM       C7S            17.1222816779       -4.0687472618       13.4326091511  MEMB      15              0.0000000000
      1490        15  OSM       H7S            18.2060226195       -3.9506851404       13.2418754036  MEMB      15              0.0000000000
      1491        15  OSM       H7T            16.6789964617       -3.2498450657       14.0229540760  MEMB      15              0.0000000000
      1492        15  OSM       C8S            16.5455137035       -4.0233928242       12.0282530429  MEMB      15              0.0000000000
      1493        15  OSM       H8S            16.9307728714       -5.0122872742       11.6896510977  MEMB      15              0.0000000000
      1494        15  OSM       H8T            17.0334089746       -3.3239183117       11.3497637432  MEMB      15              0.0000000000
      1495        15  OSM       C9S            15.0249447205       -3.7470410302       12.0423746646  MEMB      15              0.0000000000
      1496        15  OSM       H9S            14.6995057965       -3.9168054318       13.0744022281  MEMB      15              0.0000000000
      1497        15  OSM       H9T            14.3178737559       -4.3396017966       11.4167092364  MEMB      15              0.0000000000
      1498        15  OSM       C10S           14.4308299693       -2.6667738671       11.2546439146  MEMB      15              0.0000000000
      1499        15  OSM       H10S           14.8225012021       -1.8466253052       11.8661826261  MEMB      15              0.0000000000
      1500        15  OSM       H10T           13.3151675875       -2.7845179314       11.3433485419  MEMB      15              0.0000000000
      1501        15  OSM       C11S           14.7937653992       -2.7225775370        9.7767955867  MEMB      15              0.0000000000
      1502        15  OSM       H11S           14.4053701558       -3.5901123423        9.1982606753  MEMB      15              0.0000000000
      1503        15  OSM       H11T           15.8989231270       -2.7386620505        9.6978011056  MEMB      15              0.0000000000
      1504        15  OSM       C12S           14.2528627963       -1.4972145102        9.1362411107  MEMB      15              0.0000000000
      1505        15  OSM       H12S           14.5100353747       -0.6894409900        9.8619819078  MEMB      15              0.0000000000
      1506        15  OSM       H12T           13.1433549738       -1.5453765242        9.0046998503  MEMB      15              0.0000000000
      1507        15  OSM       C13S           15.0025451778       -1.1032445676        7.8921159564  MEMB      15              0.0000000000
      1508        15  OSM       H13S           16.0550958623       -0.8723733047        8.1846241410  MEMB      15              0.0000000000
      1509        15  OSM       H13T           14.4835498271       -0.1703176060        7.5942034065  MEMB      15              0.0000000000
      1510        15  OSM       C14S           14.9978853804       -2.1193718579        6.7520147043  MEMB      15              0.0000000000
      1511        15  OSM       H14S           14.1259115148       -2.8014408935        6.8598803581  MEMB      15              0.0000000000
      1512        15  OSM       H14T           15.9097367689       -2.7556062745        6.8262844274  MEMB      15              0.0000000000
      1513        15  OSM       C15S           14.8965262815       -1.4500164676        5.3743327457  MEMB      15              0.0000000000
      1514        15  OSM       H15S           13.8419024562       -1.1329462052        5.1968987140  MEMB      15              0.0000000000
      1515        15  OSM       H15T           15.1589420571       -2.1918999656        4.5876440720  MEMB      15              0.0000000000
      1516        15  OSM       C16S           15.7239757797       -0.1864882805        5.1963501166  MEMB      15              0.0000000000
      1517        15  OSM       H16S           16.8145762346       -0.3464363108        5.3154954520  MEMB      15              0.0000000000
      1518        15  OSM       H16T           15.4324821360        0.6022239245        5.9345419185  MEMB      15              0.0000000000
      1519        15  OSM       C17S           15.4896984435        0.3925080259        3.8223863185  MEMB      15              0.0000000000
      1520        15  OSM       H17S           16.1471768942        1.2454590319        3.9085270889  MEMB      15              0.0000000000
      1521        15  OSM       H17T           14.4174501434        0.6158222408        3.6166001625  MEMB      15              0.0000000000
      1522        15  OSM       C18S           16.1847962765       -0.1688902325        2.6359873723  MEMB      15              0.0000000000
      1523        15  OSM       H18S           15.7570493267       -1.1616948159        2.4643936093  MEMB      15              0.0000000000
      1524        15  OSM       H18T           17.2592963932       -0.2151101625        2.9184223469  MEMB      15              0.0000000000
      1525        15  OSM       H18U           16.1145444219        0.5033806309        1.7421945280  MEMB      15              0.0000000000
      1526        15  OSM       C1F            19.7008281813       -1.2133370217       16.6186721624  MEMB      15              0.0000000000
      1527        15  OSM       OF             20.8540102806       -1.1894163395       16.9901861206  MEMB      15              0.0000000000
      1528        15  OSM       C2F            19.1741926592       -0.0914314857       15.7863241060  MEMB      15              0.0000000000
      1529        15  OSM       H2F            18.5567832623        0.5975455206       16.3985581384  MEMB      15              0.0000000000
      1530        15  OSM       H2G            18.5463714631       -0.5615940940       15.0011533608  MEMB      15              0.0000000000
      1531        15  OSM       C3F            20.3245651931        0.7517475627       15.1763146523  MEMB      15              0.0000000000
      1532        15  OSM       H3F            20.9970977488        0.1183770164       14.5627295358  MEMB      15              0.0000000000
      1533        15  OSM       H3G            20.9868015514        1.1411581051       15.9832124657  MEMB      15              0.0000000000
      1534        15  OSM       C4F            19.8198602012        1.9482555914       14.3609224551  MEMB      15              0.0000000000
      1535        15  OSM       H4F            20.6702868250        2.6565565739       14.2441312284  MEMB      15              0.0000000000
      1536        15  OSM       H4G            19.0222420879        2.4743192056       14.9302882862  MEMB      15              0.0000000000
      1537        15  OSM       C5F            19.2425445512        1.5941529127       12.9805086811  MEMB      15              0.0000000000
      1538        15  OSM       H5F            18.7877555515        2.5229023724       12.5815320748  MEMB      15              0.0000000000
      1539        15  OSM       H5G            18.4389717323        0.8338041353       13.0541960735  MEMB      15              0.0000000000
      1540        15  OSM       C6F            20.2804797785        1.0994008421       11.9755365928  MEMB      15              0.0000000000
      1541        15  OSM       H6F            20.5591617871        0.0456252542       12.1945357890  MEMB      15              0.0000000000
      1542        15  OSM       H6G            21.1854973051        1.7466028118       12.0749289293  MEMB      15              0.0000000000
      1543        15  OSM       C7F            19.8001307826        1.1919249209       10.5244819823  MEMB      15              0.0000000000
      1544        15  OSM       H7F            19.6938441517        2.2770131363       10.3053922030  MEMB      15              0.0000000000
      1545        15  OSM       H7G            18.8307475430        0.6783781888       10.3362420048  MEMB      15              0.0000000000
      1546        15  OSM       C8F            20.8339640591        0.6307332543        9.5673857188  MEMB      15              0.0000000000
      1547        15  OSM       H8F            21.8399590121        0.9055684299        9.9565990014  MEMB      15              0.0000000000
      1548        15  OSM       H8G            20.6964574696        1.1153030824        8.5715360774  MEMB      15              0.0000000000
      1549        15  OSM       C9F            20.8245530372       -0.8612421738        9.4884796828  MEMB      15              0.0000000000
      1550        15  OSM       H9F            21.0034648967       -1.3534507665       10.4463140239  MEMB      15              0.0000000000
      1551        15  OSM       C10F           20.3610953555       -1.6252937166        8.5027721596  MEMB      15              0.0000000000
      1552        15  OSM       H10F           20.6155583983       -2.6920933979        8.5389769528  MEMB      15              0.0000000000
      1553        15  OSM       C11F           19.7232893754       -1.1434727627        7.2272230103  MEMB      15              0.0000000000
      1554        15  OSM       H11F           19.7535594471       -0.0265833024        7.1251454404  MEMB      15              0.0000000000
      1555        15  OSM       H11G           18.6891464107       -1.4970495475        7.1734515563  MEMB      15              0.0000000000
      1556        15  OSM       C12F           20.3446351600       -1.7342440151        5.9906915172  MEMB      15              0.0000000000
      1557        15  OSM       H12F           20.4527614840       -2.8236134161        5.9187565561  MEMB      15              0.0000000000
      1558        15  OSM       H12G           21.4021848271       -1.6377576825        6.2640608535  MEMB      15              0.0000000000
      1559        15  OSM       C13F           19.8152468978       -1.0796391694        4.6532665373  MEMB      15              0.0000000000
      1560        15  OSM       H13F           18.8839270716       -1.4930843415        4.2957079696  MEMB      15              0.0000000000
      1561        15  OSM       H13G           20.3814003687       -1.5636993354        3.8163906477  MEMB      15              0.0000000000
      1562        15  OSM       C14F           20.0044492469        0.5061845737        4.5139908245  MEMB      15              0.0000000000
      1563        15  OSM       H14F           20.8780707778        0.8531250306        5.0503810166  MEMB      15              0.0000000000
      1564        15  OSM       H14G           19.2229393211        1.1561210151        4.8732550729  MEMB      15              0.0000000000
      1565        15  OSM       C15F           20.3547563603        1.0579771982        3.1220522841  MEMB      15              0.0000000000
      1566        15  OSM       H15F           20.4049475399        2.1223624423        2.9267456931  MEMB      15              0.0000000000
      1567        15  OSM       H15G           19.5979828504        0.4728864177        2.7545320617  MEMB      15              0.0000000000
      1568        15  OSM       C16F           21.3090561840        0.5810089780        2.1116473996  MEMB      15              0.0000000000
      1569        15  OSM       H16F           21.3140725986       -0.5284171924        1.8241719324  MEMB      15              0.0000000000
      1570        15  OSM       H16G           21.8600762513        0.8650523546        3.0533286043  MEMB      15              0.0000000000
      1571        15  OSM       C17F           21.7682752163        1.4044615536        0.8327605156  MEMB      15              0.0000000000
      1572        15  OSM       H17F           22.8290506685        1.7601579306        0.9090319780  MEMB      15              0.0000000000
      1573        15  OSM       H17G           21.9156104285        2.4582368482        0.7468916597  MEMB      15              0.0000000000
      1574        15  OSM       C18F           21.5474882811        0.5976119256       -0.4789794983  MEMB      15              0.0000000000
      1575        15  OSM       H18F           21.4529865268       -0.5191422555       -0.3644030129  MEMB      15              0.0000000000
      1576        15  OSM       H18G           22.1082730930        0.8594800171       -1.3834588522  MEMB      15              0.0000000000
      1577        15  OSM       H18H           20.6117148202        0.9065520265       -0.6945973177  MEMB      15              0.0000000000
      1578        16  CHL1      C3              9.5103972986      -14.1169909977       17.3291053194  MEMB      16              0.0000000000
      1579        16  CHL1      H3              9.2764833469      -13.0925861104       16.9440825822  MEMB      16              0.0000000000
      1580        16  CHL1      O3              9.1425301508      -14.2237192497       18.6940197913  MEMB      16              0.0000000000
      1581        16  CHL1      H3'             9.7361517169      -13.6635285890       19.1788191744  MEMB      16              0.0000000000
      1582        16  CHL1      C4              8.7014803343      -15.1405110421       16.5267199431  MEMB      16              0.0000000000
      1583        16  CHL1      H4A             8.9047908476      -16.1688987479       16.8823843950  MEMB      16              0.0000000000
      1584        16  CHL1      H4B             7.6211261240      -14.9550259286       16.7227320409  MEMB      16              0.0000000000
      1585        16  CHL1      C5              9.0399762939      -15.0404066702       15.0613221576  MEMB      16              0.0000000000
      1586        16  CHL1      C6              8.0819550786      -14.7895782431       14.1739377820  MEMB      16              0.0000000000
      1587        16  CHL1      H6              7.0489654614      -14.6870768605       14.5236513849  MEMB      16              0.0000000000
      1588        16  CHL1      C7              8.3260208424      -14.6909580470       12.7040363864  MEMB      16              0.0000000000
      1589        16  CHL1      H7A             7.5656286549      -15.2588410238       12.1320179805  MEMB      16              0.0000000000
      1590        16  CHL1      H7B             8.2891513981      -13.6154108942       12.4273448777  MEMB      16              0.0000000000
      1591        16  CHL1      C8              9.6965361295      -15.2280559988       12.2637754397  MEMB      16              0.0000000000
      1592        16  CHL1      H8              9.7165668841      -16.3312703623       12.3685922962  MEMB      16              0.0000000000
      1593        16  CHL1      C14             9.9479253318      -14.8209794936       10.8068605643  MEMB      16              0.0000000000
      1594        16  CHL1      H14             9.9725585379      -13.6989311622       10.8215154436  MEMB      16              0.0000000000
      1595        16  CHL1      C15             8.9274475485      -15.1687178942        9.6975486614  MEMB      16              0.0000000000
      1596        16  CHL1      H15A            8.5801877944      -16.2235379685        9.7413442700  MEMB      16              0.0000000000
      1597        16  CHL1      H15B            8.0638095559      -14.4741432873        9.7386179383  MEMB      16              0.0000000000
      1598        16  CHL1      C16             9.7195696529      -14.9641955576        8.3968266186  MEMB      16              0.0000000000
      1599        16  CHL1      H16A            9.6431254711      -15.8371855238        7.7117548257  MEMB      16              0.0000000000
      1600        16  CHL1      H16B            9.4092862540      -14.0460660806        7.8632768914  MEMB      16              0.0000000000
      1601        16  CHL1      C17            11.1965004807      -14.7541985017        8.7900206151  MEMB      16              0.0000000000
      1602        16  CHL1      H17            11.3499329768      -13.6572632959        8.8835535747  MEMB      16              0.0000000000
      1603        16  CHL1      C13            11.2855561587      -15.2661872101       10.2614136042  MEMB      16              0.0000000000
      1604        16  CHL1      C18            11.3542964171      -16.8148603170       10.2806660933  MEMB      16              0.0000000000
      1605        16  CHL1      H18A           10.7544539598      -17.3191233715        9.5056465521  MEMB      16              0.0000000000
      1606        16  CHL1      H18B           12.3795784340      -17.0762055176       10.0770240525  MEMB      16              0.0000000000
      1607        16  CHL1      H18C           11.1363905109      -17.2738537300       11.2622950270  MEMB      16              0.0000000000
      1608        16  CHL1      C12            12.3479475741      -14.6166504567       11.1730372440  MEMB      16              0.0000000000
      1609        16  CHL1      H12A           13.3316313754      -14.9461807542       10.8428676896  MEMB      16              0.0000000000
      1610        16  CHL1      H12B           12.3591478733      -13.5113817349       11.1032685145  MEMB      16              0.0000000000
      1611        16  CHL1      C11            12.1770792386      -15.0063653479       12.6529029260  MEMB      16              0.0000000000
      1612        16  CHL1      H11A           12.3305409172      -16.1026445774       12.7170617796  MEMB      16              0.0000000000
      1613        16  CHL1      H11B           12.9767603251      -14.5102583133       13.2383237897  MEMB      16              0.0000000000
      1614        16  CHL1      C9             10.7698290050      -14.6802738264       13.2050817408  MEMB      16              0.0000000000
      1615        16  CHL1      H9             10.6342928049      -13.5689328154       13.1424520602  MEMB      16              0.0000000000
      1616        16  CHL1      C10            10.5298028945      -15.1178034981       14.6930180043  MEMB      16              0.0000000000
      1617        16  CHL1      C19            11.0359737719      -16.5628722376       14.9581621852  MEMB      16              0.0000000000
      1618        16  CHL1      H19A           10.7284466494      -16.9151402072       15.9596771584  MEMB      16              0.0000000000
      1619        16  CHL1      H19B           10.7004712440      -17.3120695497       14.2159926594  MEMB      16              0.0000000000
      1620        16  CHL1      H19C           12.1417220152      -16.5468374223       14.9842039549  MEMB      16              0.0000000000
      1621        16  CHL1      C1             11.3368943112      -14.2068375388       15.6606824540  MEMB      16              0.0000000000
      1622        16  CHL1      H1A            12.4120088464      -14.4293267449       15.5221254421  MEMB      16              0.0000000000
      1623        16  CHL1      H1B            11.1506163927      -13.1507444208       15.3532459760  MEMB      16              0.0000000000
      1624        16  CHL1      C2             11.0016815560      -14.4091602186       17.1524324699  MEMB      16              0.0000000000
      1625        16  CHL1      H2A            11.6771315713      -13.7905930872       17.7698964401  MEMB      16              0.0000000000
      1626        16  CHL1      H2B            11.1566571070      -15.4573028590       17.4938715095  MEMB      16              0.0000000000
      1627        16  CHL1      C20            12.0880899126      -15.2513401641        7.6377375063  MEMB      16              0.0000000000
      1628        16  CHL1      H20            11.9369636395      -16.3505016285        7.5028221396  MEMB      16              0.0000000000
      1629        16  CHL1      C21            13.5219957608      -14.9073803687        7.9002555905  MEMB      16              0.0000000000
      1630        16  CHL1      H21A           13.9464399176      -13.9599903442        7.6247643019  MEMB      16              0.0000000000
      1631        16  CHL1      H21B           14.0240708681      -15.6067225702        7.1870347797  MEMB      16              0.0000000000
      1632        16  CHL1      H21C           13.8728680427      -15.1176341603        8.9262525713  MEMB      16              0.0000000000
      1633        16  CHL1      C22            11.8424768908      -14.6488253211        6.2381733292  MEMB      16              0.0000000000
      1634        16  CHL1      H22A           10.7779212870      -14.7637986080        5.9820750979  MEMB      16              0.0000000000
      1635        16  CHL1      H22B           12.1056197124      -13.5764919698        6.3825523149  MEMB      16              0.0000000000
      1636        16  CHL1      C23            12.6568632079      -15.1949914434        5.0275457930  MEMB      16              0.0000000000
      1637        16  CHL1      H23A           13.7472839805      -15.2772303334        5.2466854216  MEMB      16              0.0000000000
      1638        16  CHL1      H23B           12.3533930302      -16.2078725282        4.7067520202  MEMB      16              0.0000000000
      1639        16  CHL1      C24            12.4781167295      -14.3030609713        3.7999101813  MEMB      16              0.0000000000
      1640        16  CHL1      H24A           11.4370481286      -13.9535858287        3.7745107994  MEMB      16              0.0000000000
      1641        16  CHL1      H24B           12.9988155929      -13.3464850750        3.8912643216  MEMB      16              0.0000000000
      1642        16  CHL1      C25            12.9393708218      -14.9523567910        2.4867779156  MEMB      16              0.0000000000
      1643        16  CHL1      H25            13.8612899187      -15.5571709888        2.6782244185  MEMB      16              0.0000000000
      1644        16  CHL1      C26            11.8389622578      -15.8311114921        1.8719178528  MEMB      16              0.0000000000
      1645        16  CHL1      H26A           12.1281987825      -16.1471310115        0.8495907856  MEMB      16              0.0000000000
      1646        16  CHL1      H26B           11.6224845412      -16.7475896453        2.4540461730  MEMB      16              0.0000000000
      1647        16  CHL1      H26C           10.9043901283      -15.2325717972        1.7951461382  MEMB      16              0.0000000000
      1648        16  CHL1      C27            13.3056770203      -13.8625156690        1.4744577263  MEMB      16              0.0000000000
      1649        16  CHL1      H27A           13.9335826027      -14.3037309100        0.6762870166  MEMB      16              0.0000000000
      1650        16  CHL1      H27B           12.3776147793      -13.4843843104        0.9982804755  MEMB      16              0.0000000000
      1651        16  CHL1      H27C           13.8528814847      -13.0170295788        1.9490658338  MEMB      16              0.0000000000
      1652        17  OSM       N              18.7122497687        5.0238844256       20.6957657372  MEMB      17              0.0000000000
      1653        17  OSM       C15            19.9412654419        5.4961636071       19.9773468846  MEMB      17              0.0000000000
      1654        17  OSM       H15A           20.8008392753        5.4499203414       20.6265875529  MEMB      17              0.0000000000
      1655        17  OSM       H15B           19.8109039380        6.5358195482       19.6495394529  MEMB      17              0.0000000000
      1656        17  OSM       H15C           20.1309316891        4.9365811737       19.0774973095  MEMB      17              0.0000000000
      1657        17  OSM       C14            18.9118027473        3.6465172364       21.2367387278  MEMB      17              0.0000000000
      1658        17  OSM       H14A           19.6168894154        3.6861592040       22.0557355063  MEMB      17              0.0000000000
      1659        17  OSM       H14B           19.2455916320        2.9482929040       20.4835161521  MEMB      17              0.0000000000
      1660        17  OSM       H14C           17.9743738061        3.2802898838       21.6446695573  MEMB      17              0.0000000000
      1661        17  OSM       C13            18.5151405876        5.9268632219       21.8745588356  MEMB      17              0.0000000000
      1662        17  OSM       H13A           18.4632785761        6.9826058092       21.6028814655  MEMB      17              0.0000000000
      1663        17  OSM       H13B           19.3581978432        5.7928683973       22.5195395629  MEMB      17              0.0000000000
      1664        17  OSM       H13C           17.6139324840        5.6938265126       22.4391925925  MEMB      17              0.0000000000
      1665        17  OSM       C12            17.5131808221        5.0855539096       19.7507786542  MEMB      17              0.0000000000
      1666        17  OSM       H12A           17.8141630008        4.6104726545       18.8228528643  MEMB      17              0.0000000000
      1667        17  OSM       H12B           17.3393251391        6.1293915479       19.4667308264  MEMB      17              0.0000000000
      1668        17  OSM       C11            16.1266960585        4.5320478411       20.1975806601  MEMB      17              0.0000000000
      1669        17  OSM       H11A           16.1919975684        3.4248875205       20.1966450259  MEMB      17              0.0000000000
      1670        17  OSM       H11B           15.3849495964        4.7774598498       19.4003251735  MEMB      17              0.0000000000
      1671        17  OSM       P              14.9453275536        6.4078255865       21.6901727541  MEMB      17              0.0000000000
      1672        17  OSM       O13            13.5367704169        6.1728832925       22.0855293749  MEMB      17              0.0000000000
      1673        17  OSM       O14            15.8216914361        7.2974718687       22.4801619395  MEMB      17              0.0000000000
      1674        17  OSM       O11            14.9385173843        6.8860544683       20.2549090481  MEMB      17              0.0000000000
      1675        17  OSM       O12            15.6788838341        5.0032326347       21.4846878306  MEMB      17              0.0000000000
      1676        17  OSM       C1S            15.4315741514        8.1718939792       20.0109974971  MEMB      17              0.0000000000
      1677        17  OSM       H1S            16.5015042305        8.3555506780       20.2679873892  MEMB      17              0.0000000000
      1678        17  OSM       H1T            14.7924829610        9.0392506355       20.3640752993  MEMB      17              0.0000000000
      1679        17  OSM       NF             16.5143730314        8.4902776749       18.0670117879  MEMB      17              0.0000000000
      1680        17  OSM       HNF            16.1796723213        9.4106814682       17.8893417516  MEMB      17              0.0000000000
      1681        17  OSM       C2S            15.2780876439        7.9492904882       18.6209431751  MEMB      17              0.0000000000
      1682        17  OSM       H2S            15.3341546877        7.0375192385       18.0378649215  MEMB      17              0.0000000000
      1683        17  OSM       C3S            13.7699792533        8.5952993379       18.3865275574  MEMB      17              0.0000000000
      1684        17  OSM       H3S            13.4633038240        9.6452187041       18.7536054532  MEMB      17              0.0000000000
      1685        17  OSM       O3             12.6714695464        7.9572419300       18.9006803849  MEMB      17              0.0000000000
      1686        17  OSM       HO3            13.2607693400        7.3610970837       19.3262322570  MEMB      17              0.0000000000
      1687        17  OSM       C4S            13.5738654760        8.4987822722       17.0589914267  MEMB      17              0.0000000000
      1688        17  OSM       H4S            14.2768974141        9.3130902150       17.3438831666  MEMB      17              0.0000000000
      1689        17  OSM       C5S            13.0826813714        7.8512150777       15.8878558758  MEMB      17              0.0000000000
      1690        17  OSM       H5S            12.6239223276        6.9221955173       16.0739688112  MEMB      17              0.0000000000
      1691        17  OSM       C6S            12.9062996435        7.8250211983       14.3018283344  MEMB      17              0.0000000000
      1692        17  OSM       H6S            11.8316376423        7.8440038732       13.9623543174  MEMB      17              0.0000000000
      1693        17  OSM       H6T            13.6426422811        7.2559267560       13.6365568752  MEMB      17              0.0000000000
      1694        17  OSM       C7S            13.1807983096        8.8127206581       13.2212999709  MEMB      17              0.0000000000
      1695        17  OSM       H7S            14.3231031550        8.9654591536       13.4903151878  MEMB      17              0.0000000000
      1696        17  OSM       H7T            12.3981239005        9.5520284175       13.4838858965  MEMB      17              0.0000000000
      1697        17  OSM       C8S            12.3857197104        8.9899265590       11.8519512694  MEMB      17              0.0000000000
      1698        17  OSM       H8S            12.6626017827        9.9369327225       11.4225114481  MEMB      17              0.0000000000
      1699        17  OSM       H8T            11.4376049270        9.5431087240       11.6830712049  MEMB      17              0.0000000000
      1700        17  OSM       C9S            12.9330515253        8.1698975585       10.7412543498  MEMB      17              0.0000000000
      1701        17  OSM       H9S            13.1923435510        7.7646169213       11.6495702428  MEMB      17              0.0000000000
      1702        17  OSM       H9T            13.6875810856        7.3594411781       10.8569161899  MEMB      17              0.0000000000
      1703        17  OSM       C10S           13.1843503739        9.0755325466        9.5802841307  MEMB      17              0.0000000000
      1704        17  OSM       H10S           13.6290472259       10.0934265658        9.5546767121  MEMB      17              0.0000000000
      1705        17  OSM       H10T           12.1624644353        9.3684321509        9.2864430600  MEMB      17              0.0000000000
      1706        17  OSM       C11S           13.4841833985        8.1926900775        8.4497735879  MEMB      17              0.0000000000
      1707        17  OSM       H11S           13.4869955384        8.7418740977        7.5137107511  MEMB      17              0.0000000000
      1708        17  OSM       H11T           12.6390376340        7.6396822566        8.4526645822  MEMB      17              0.0000000000
      1709        17  OSM       C12S           14.5109066760        7.1002329583        8.6599979483  MEMB      17              0.0000000000
      1710        17  OSM       H12S           15.0178547285        6.9775126058        9.6357776118  MEMB      17              0.0000000000
      1711        17  OSM       H12T           14.9443642733        7.8945283165        8.5012110232  MEMB      17              0.0000000000
      1712        17  OSM       C13S           15.1640929480        6.3915228715        7.4374402777  MEMB      17              0.0000000000
      1713        17  OSM       H13S           14.1143096043        6.1596637066        7.6032391426  MEMB      17              0.0000000000
      1714        17  OSM       H13T           16.0093341912        5.7755226515        7.7608628839  MEMB      17              0.0000000000
      1715        17  OSM       C14S           15.1532778863        6.4931261185        5.8804825382  MEMB      17              0.0000000000
      1716        17  OSM       H14S           15.9723315861        7.0410179831        5.9055009802  MEMB      17              0.0000000000
      1717        17  OSM       H14T           14.2847859950        7.1122329173        5.5890318677  MEMB      17              0.0000000000
      1718        17  OSM       C15S           15.7081544301        5.4083828318        4.8547094050  MEMB      17              0.0000000000
      1719        17  OSM       H15S           16.6346186559        4.9854676385        5.2498808158  MEMB      17              0.0000000000
      1720        17  OSM       H15T           15.7614728882        5.9653229703        3.8820248052  MEMB      17              0.0000000000
      1721        17  OSM       C16S           15.0544855353        4.0453366431        4.5772933405  MEMB      17              0.0000000000
      1722        17  OSM       H16S           14.2594654428        4.3728284830        3.9880075704  MEMB      17              0.0000000000
      1723        17  OSM       H16T           14.7125818180        3.3039378161        5.3615895425  MEMB      17              0.0000000000
      1724        17  OSM       C17S           15.1724465889        3.1453525563        3.5356269144  MEMB      17              0.0000000000
      1725        17  OSM       H17S           14.2534045758        2.4655086992        3.7224083693  MEMB      17              0.0000000000
      1726        17  OSM       H17T           16.1292772451        2.9737103334        4.0524038126  MEMB      17              0.0000000000
      1727        17  OSM       C18S           15.2040584384        3.7196656612        2.2052429776  MEMB      17              0.0000000000
      1728        17  OSM       H18S           15.9097528896        4.5446596615        2.1081878092  MEMB      17              0.0000000000
      1729        17  OSM       H18T           14.2543630871        4.2580265499        2.1620845408  MEMB      17              0.0000000000
      1730        17  OSM       H18U           15.3352695775        2.8773774619        1.4979825869  MEMB      17              0.0000000000
      1731        17  OSM       C1F            17.9382819273        8.2334876570       17.8519004680  MEMB      17              0.0000000000
      1732        17  OSM       OF             18.3805257710        7.3341235252       18.5300080706  MEMB      17              0.0000000000
      1733        17  OSM       C2F            19.0261618755        8.9805981840       16.7905427772  MEMB      17              0.0000000000
      1734        17  OSM       H2F            19.8897303878        9.4062118331       17.3188024166  MEMB      17              0.0000000000
      1735        17  OSM       H2G            19.0140415019       10.0171419853       16.6281521460  MEMB      17              0.0000000000
      1736        17  OSM       C3F            18.6670128435        9.2891035944       15.2332377805  MEMB      17              0.0000000000
      1737        17  OSM       H3F            19.3867309859        9.8635934219       14.6087300500  MEMB      17              0.0000000000
      1738        17  OSM       H3G            17.7122877979        9.8200871099       14.9478360503  MEMB      17              0.0000000000
      1739        17  OSM       C4F            18.2168424191        8.0178819608       14.8398159902  MEMB      17              0.0000000000
      1740        17  OSM       H4F            17.2936254854        7.7866227624       15.4047247509  MEMB      17              0.0000000000
      1741        17  OSM       H4G            19.0673869217        7.4412030599       15.1852436286  MEMB      17              0.0000000000
      1742        17  OSM       C5F            17.9154973043        7.9241145505       13.4185923025  MEMB      17              0.0000000000
      1743        17  OSM       H5F            18.8024892726        8.1882257983       12.8187995483  MEMB      17              0.0000000000
      1744        17  OSM       H5G            17.1098500401        8.6315484358       13.3092136709  MEMB      17              0.0000000000
      1745        17  OSM       C6F            17.1409595614        6.6995862776       13.0550431683  MEMB      17              0.0000000000
      1746        17  OSM       H6F            16.9274752393        6.8080330225       11.9709039388  MEMB      17              0.0000000000
      1747        17  OSM       H6G            16.1784871952        6.7030352762       13.6312856299  MEMB      17              0.0000000000
      1748        17  OSM       C7F            18.0023041939        5.5156015440       13.4022731068  MEMB      17              0.0000000000
      1749        17  OSM       H7F            17.3730344606        4.6134587684       13.4984846536  MEMB      17              0.0000000000
      1750        17  OSM       H7G            18.3872447294        5.6872510759       14.4271077010  MEMB      17              0.0000000000
      1751        17  OSM       C8F            19.1222848200        5.3289567871       12.3712329449  MEMB      17              0.0000000000
      1752        17  OSM       H8F            19.9260720410        4.6915183192       12.7972982268  MEMB      17              0.0000000000
      1753        17  OSM       H8G            19.5941186610        6.2854298281       12.0911523908  MEMB      17              0.0000000000
      1754        17  OSM       C9F            18.4558907816        4.6694601271       11.1950388391  MEMB      17              0.0000000000
      1755        17  OSM       H9F            17.7008516658        3.9327370306       11.4799607049  MEMB      17              0.0000000000
      1756        17  OSM       C10F           18.5840110181        4.9100108084        9.8933634283  MEMB      17              0.0000000000
      1757        17  OSM       H10F           17.9670962164        4.3329405776        9.1944050143  MEMB      17              0.0000000000
      1758        17  OSM       C11F           19.4686599836        5.9473490893        9.2909709917  MEMB      17              0.0000000000
      1759        17  OSM       H11F           20.1028037804        5.5506807049        8.4797154452  MEMB      17              0.0000000000
      1760        17  OSM       H11G           20.0908545510        6.4038884660       10.0430610030  MEMB      17              0.0000000000
      1761        17  OSM       C12F           18.6240828128        7.1270785140        8.9071157309  MEMB      17              0.0000000000
      1762        17  OSM       H12F           18.0658835460        7.3983342275        9.7695573207  MEMB      17              0.0000000000
      1763        17  OSM       H12G           17.9145724359        6.6268412892        8.1567852401  MEMB      17              0.0000000000
      1764        17  OSM       C13F           19.2307682895        8.5977615310        8.4984084222  MEMB      17              0.0000000000
      1765        17  OSM       H13F           19.6519177386        9.1797958356        9.1314522765  MEMB      17              0.0000000000
      1766        17  OSM       H13G           18.8016479235        9.7949860509        8.5448320721  MEMB      17              0.0000000000
      1767        17  OSM       C14F           20.3497655325        8.2545375805        7.6578996204  MEMB      17              0.0000000000
      1768        17  OSM       H14F           20.8061421158        7.2918701522        7.9063752442  MEMB      17              0.0000000000
      1769        17  OSM       H14G           21.3729338043        8.8660307836        7.5621048702  MEMB      17              0.0000000000
      1770        17  OSM       C15F           19.1005339380        8.2649910786        6.8602108650  MEMB      17              0.0000000000
      1771        17  OSM       H15F           18.7515507940        7.2319374119        6.7526795129  MEMB      17              0.0000000000
      1772        17  OSM       H15G           19.9914809315        8.7518494714        6.6497892709  MEMB      17              0.0000000000
      1773        17  OSM       C16F           18.5173632519        9.1694473265        5.7506295589  MEMB      17              0.0000000000
      1774        17  OSM       H16F           18.1971892934       10.0963364226        6.2120200736  MEMB      17              0.0000000000
      1775        17  OSM       H16G           17.8225952579        8.3047441920        5.5189346695  MEMB      17              0.0000000000
      1776        17  OSM       C17F           18.7304936284        9.5763505717        4.2240208497  MEMB      17              0.0000000000
      1777        17  OSM       H17F           17.8330805979        9.7627645884        4.2243558856  MEMB      17              0.0000000000
      1778        17  OSM       H17G           18.6732337670        8.4083244799        4.0543644144  MEMB      17              0.0000000000
      1779        17  OSM       C18F           19.9079623876       10.5541311778        2.7780864037  MEMB      17              0.0000000000
      1780        17  OSM       H18F           19.5081985614       11.0685683078        1.8624059135  MEMB      17              0.0000000000
      1781        17  OSM       H18G           20.9575931577       10.2590329664        2.4079876702  MEMB      17              0.0000000000
      1782        17  OSM       H18H           20.2247843079       11.3615944576        3.1059769426  MEMB      17              0.0000000000
      1783        18  SOPE      N               3.4306737621      -18.7291468519       23.5697517414  MEMB      18              0.0000000000
      1784        18  SOPE      HN1             2.6303461343      -18.5541067216       24.2180357564  MEMB      18              0.0000000000
      1785        18  SOPE      HN2             3.1655171203      -19.4670404294       22.8762429211  MEMB      18              0.0000000000
      1786        18  SOPE      HN3             4.3078179844      -19.0074448816       24.0601548328  MEMB      18              0.0000000000
      1787        18  SOPE      C12             3.7077026281      -17.4962847728       22.7549146136  MEMB      18              0.0000000000
      1788        18  SOPE      H12A            4.4515203240      -17.7857742284       21.9881705800  MEMB      18              0.0000000000
      1789        18  SOPE      H12B            4.1884159454      -16.7399312399       23.4114875288  MEMB      18              0.0000000000
      1790        18  SOPE      C11             2.4006209764      -16.9528399204       22.1379279059  MEMB      18              0.0000000000
      1791        18  SOPE      H11A            2.5622635239      -16.0083073120       21.5745617468  MEMB      18              0.0000000000
      1792        18  SOPE      H11B            1.7173396269      -16.6907285542       22.9744817982  MEMB      18              0.0000000000
      1793        18  SOPE      P               2.2819301272      -18.2797339072       19.8724232778  MEMB      18              0.0000000000
      1794        18  SOPE      O13             2.8948752308      -19.6086170840       20.0853895107  MEMB      18              0.0000000000
      1795        18  SOPE      O14             3.1127411542      -17.1799776088       19.3649746295  MEMB      18              0.0000000000
      1796        18  SOPE      O12             1.7287016346      -17.8830775494       21.2985585163  MEMB      18              0.0000000000
      1797        18  SOPE      O11             0.9941520563      -18.4068016197       18.9893648965  MEMB      18              0.0000000000
      1798        18  SOPE      C1             -0.1671780546      -19.1038596863       19.4195659129  MEMB      18              0.0000000000
      1799        18  SOPE      HA             -0.6216805265      -18.5799954218       20.2910180122  MEMB      18              0.0000000000
      1800        18  SOPE      HB              0.0789931838      -20.1483070044       19.6791581529  MEMB      18              0.0000000000
      1801        18  SOPE      C2             -1.1999317239      -19.1748816646       18.2668969290  MEMB      18              0.0000000000
      1802        18  SOPE      HS             -1.8786668087      -20.0349723664       18.3733581865  MEMB      18              0.0000000000
      1803        18  SOPE      O21            -0.5565549467      -19.2149255086       16.9864022527  MEMB      18              0.0000000000
      1804        18  SOPE      C21             0.2949754803      -20.1838895953       16.7358962297  MEMB      18              0.0000000000
      1805        18  SOPE      O22             0.3311321132      -21.2868306813       17.2509818304  MEMB      18              0.0000000000
      1806        18  SOPE      C22             1.2437457667      -19.7258398962       15.6039229888  MEMB      18              0.0000000000
      1807        18  SOPE      H2R             2.1742279808      -19.3513121025       16.0778580019  MEMB      18              0.0000000000
      1808        18  SOPE      H2S             0.7835742002      -18.8675280023       15.0794416638  MEMB      18              0.0000000000
      1809        18  SOPE      C3             -2.0995211634      -17.9204700324       18.3108096248  MEMB      18              0.0000000000
      1810        18  SOPE      HX             -2.7498922198      -17.9663804266       19.2143542538  MEMB      18              0.0000000000
      1811        18  SOPE      HY             -2.7627366930      -17.9729127738       17.4160657010  MEMB      18              0.0000000000
      1812        18  SOPE      O31            -1.2983970755      -16.7199415203       18.3786984900  MEMB      18              0.0000000000
      1813        18  SOPE      C31            -0.9183507879      -16.2443397340       17.2025869392  MEMB      18              0.0000000000
      1814        18  SOPE      O32            -1.3044288742      -16.6493700786       16.1183071250  MEMB      18              0.0000000000
      1815        18  SOPE      C32             0.1187144603      -15.1421163285       17.3923217363  MEMB      18              0.0000000000
      1816        18  SOPE      H2X             0.8436913807      -15.5554255600       18.1169179492  MEMB      18              0.0000000000
      1817        18  SOPE      H2Y            -0.3374745003      -14.2467943465       17.8597282146  MEMB      18              0.0000000000
      1818        18  SOPE      C23             1.6207456424      -20.8580104386       14.6157511205  MEMB      18              0.0000000000
      1819        18  SOPE      H3R             2.1055041423      -21.6905863463       15.1669402420  MEMB      18              0.0000000000
      1820        18  SOPE      H3S             2.3626220434      -20.5046381528       13.8628083558  MEMB      18              0.0000000000
      1821        18  SOPE      C24             0.4422634113      -21.4289839594       13.8358105104  MEMB      18              0.0000000000
      1822        18  SOPE      H4R             0.8161820701      -22.3707160659       13.3699635610  MEMB      18              0.0000000000
      1823        18  SOPE      H4S            -0.3914759602      -21.7021400805       14.5206873328  MEMB      18              0.0000000000
      1824        18  SOPE      C25            -0.0237842308      -20.4684451541       12.7531853337  MEMB      18              0.0000000000
      1825        18  SOPE      H5R            -0.4919325473      -19.5372801687       13.1327769566  MEMB      18              0.0000000000
      1826        18  SOPE      H5S             0.7961701968      -20.1702033327       12.0621799190  MEMB      18              0.0000000000
      1827        18  SOPE      C26            -1.0279077812      -21.0613018170       11.8473314364  MEMB      18              0.0000000000
      1828        18  SOPE      H6R            -1.9653285689      -21.4519931976       12.3227671784  MEMB      18              0.0000000000
      1829        18  SOPE      H6S            -1.2932556122      -20.1704730288       11.2355394952  MEMB      18              0.0000000000
      1830        18  SOPE      C27            -0.4605653982      -22.1730458413       10.9720138129  MEMB      18              0.0000000000
      1831        18  SOPE      H7R            -0.2508821864      -22.8954174174       11.7490362517  MEMB      18              0.0000000000
      1832        18  SOPE      H7S            -1.1619690809      -22.6853770031       10.3204409309  MEMB      18              0.0000000000
      1833        18  SOPE      C28             0.7448352484      -22.0306820529       10.0628657087  MEMB      18              0.0000000000
      1834        18  SOPE      H8R             1.5843435221      -22.0085173784       10.7750778961  MEMB      18              0.0000000000
      1835        18  SOPE      H8S             0.8174074392      -23.0117733611        9.5157407184  MEMB      18              0.0000000000
      1836        18  SOPE      C29             0.7432800698      -20.8433035438        9.1287476922  MEMB      18              0.0000000000
      1837        18  SOPE      H91             0.7397034641      -19.8470442880        9.5818494050  MEMB      18              0.0000000000
      1838        18  SOPE      C210            0.6635299580      -20.8852985641        7.7988150070  MEMB      18              0.0000000000
      1839        18  SOPE      H101            0.8810320966      -19.9920032816        7.2033003479  MEMB      18              0.0000000000
      1840        18  SOPE      C211            0.5630579484      -22.1043877551        6.9779498635  MEMB      18              0.0000000000
      1841        18  SOPE      H11R           -0.4688611520      -22.5134207678        6.9968693520  MEMB      18              0.0000000000
      1842        18  SOPE      H11S            1.1313462502      -22.9097584798        7.4840036508  MEMB      18              0.0000000000
      1843        18  SOPE      C212            1.1186517861      -21.7004233516        5.5660794122  MEMB      18              0.0000000000
      1844        18  SOPE      H12R            0.5111079665      -21.0184019309        4.9703014580  MEMB      18              0.0000000000
      1845        18  SOPE      H12S            0.8853632541      -22.5793777698        4.9364302682  MEMB      18              0.0000000000
      1846        18  SOPE      C213            2.6741245815      -21.2574141740        5.5786521791  MEMB      18              0.0000000000
      1847        18  SOPE      H13R            3.0719183556      -21.3837135579        6.6142807583  MEMB      18              0.0000000000
      1848        18  SOPE      H13S            2.7164384963      -20.2472565427        5.1611688293  MEMB      18              0.0000000000
      1849        18  SOPE      C214            3.7524911416      -22.0365157138        4.7712043830  MEMB      18              0.0000000000
      1850        18  SOPE      H14R            3.5684939070      -21.9995019310        3.8064211913  MEMB      18              0.0000000000
      1851        18  SOPE      H14S            3.8863955657      -23.0923026553        4.8716703514  MEMB      18              0.0000000000
      1852        18  SOPE      C215            5.1717390954      -21.8493237119        4.6268149136  MEMB      18              0.0000000000
      1853        18  SOPE      H15R            5.4945507373      -21.7292258136        5.6766234522  MEMB      18              0.0000000000
      1854        18  SOPE      H15S            5.3378952811      -20.9581533247        4.0033080973  MEMB      18              0.0000000000
      1855        18  SOPE      C216            5.7344118597      -23.1708186519        3.9882138034  MEMB      18              0.0000000000
      1856        18  SOPE      H16R            5.9801981346      -23.9621905983        4.7019567512  MEMB      18              0.0000000000
      1857        18  SOPE      H16S            6.5268212309      -22.5712202984        3.5811385200  MEMB      18              0.0000000000
      1858        18  SOPE      C217            5.5467445256      -23.9931478713        2.7213943064  MEMB      18              0.0000000000
      1859        18  SOPE      H17R            4.6352567677      -24.5775262416        2.8321939131  MEMB      18              0.0000000000
      1860        18  SOPE      H17S            6.2628708841      -24.8200956859        2.5471286356  MEMB      18              0.0000000000
      1861        18  SOPE      C218            5.6348610965      -23.0888726462        1.5473099527  MEMB      18              0.0000000000
      1862        18  SOPE      H18R            6.5680114206      -23.0302136321        0.9804795609  MEMB      18              0.0000000000
      1863        18  SOPE      H18S            5.1895057917      -22.1028996847        1.8227444011  MEMB      18              0.0000000000
      1864        18  SOPE      H18T            4.9331522598      -23.5112185304        0.8591831885  MEMB      18              0.0000000000
      1865        18  SOPE      C33             0.8477816515      -14.8196903317       16.0691227324  MEMB      18              0.0000000000
      1866        18  SOPE      H3X             0.1641217405      -14.2570585050       15.3874701264  MEMB      18              0.0000000000
      1867        18  SOPE      H3Y             1.1518202134      -15.7576812809       15.5647045227  MEMB      18              0.0000000000
      1868        18  SOPE      C34             2.1626152564      -14.0536635105       16.2269179326  MEMB      18              0.0000000000
      1869        18  SOPE      H4X             2.6803039607      -14.1166248715       17.1969659614  MEMB      18              0.0000000000
      1870        18  SOPE      H4Y             1.9080027741      -13.0248393091       16.1369312059  MEMB      18              0.0000000000
      1871        18  SOPE      C35             3.0021676488      -13.9484034510       14.9706694487  MEMB      18              0.0000000000
      1872        18  SOPE      H5X             3.6946730071      -13.0691612808       15.0921159607  MEMB      18              0.0000000000
      1873        18  SOPE      H5Y             2.2398898591      -13.7913651962       14.1643806778  MEMB      18              0.0000000000
      1874        18  SOPE      C36             3.7675842269      -15.1538072175       14.6748454399  MEMB      18              0.0000000000
      1875        18  SOPE      H6X             3.0023092556      -15.9587976885       14.6953809402  MEMB      18              0.0000000000
      1876        18  SOPE      H6Y             4.4937746250      -15.2664693642       15.5048026231  MEMB      18              0.0000000000
      1877        18  SOPE      C37             4.5416722001      -15.1730748411       13.3758439411  MEMB      18              0.0000000000
      1878        18  SOPE      H7X             5.4167157680      -14.4997890401       13.4240329724  MEMB      18              0.0000000000
      1879        18  SOPE      H7Y             3.9866166955      -14.8191634025       12.4879582643  MEMB      18              0.0000000000
      1880        18  SOPE      C38             4.9757660332      -16.6223931315       13.2011581759  MEMB      18              0.0000000000
      1881        18  SOPE      H8X             4.4430832393      -17.2469416113       13.9610029884  MEMB      18              0.0000000000
      1882        18  SOPE      H8Y             6.0512985428      -16.6752159022       13.4560247696  MEMB      18              0.0000000000
      1883        18  SOPE      C39             4.6323962194      -17.1587541770       11.8127316232  MEMB      18              0.0000000000
      1884        18  SOPE      H9X             4.9644694588      -18.2151667132       11.7171384753  MEMB      18              0.0000000000
      1885        18  SOPE      H9Y             5.1974952103      -16.5564423369       11.0668848549  MEMB      18              0.0000000000
      1886        18  SOPE      C310            3.1259272856      -17.0420765966       11.5140303193  MEMB      18              0.0000000000
      1887        18  SOPE      H10X            2.8889023941      -15.9714803331       11.3322681489  MEMB      18              0.0000000000
      1888        18  SOPE      H10Y            2.5203575916      -17.3300483712       12.4032491653  MEMB      18              0.0000000000
      1889        18  SOPE      C311            2.6413084538      -17.9146558704       10.3495195722  MEMB      18              0.0000000000
      1890        18  SOPE      H11X            1.5544561858      -17.7139727056       10.2071205104  MEMB      18              0.0000000000
      1891        18  SOPE      H11Y            2.7390287774      -18.9852788992       10.6194022789  MEMB      18              0.0000000000
      1892        18  SOPE      C312            3.3641894495      -17.7097666196        9.0145839924  MEMB      18              0.0000000000
      1893        18  SOPE      H12X            2.8528936728      -18.3779452038        8.2891337180  MEMB      18              0.0000000000
      1894        18  SOPE      H12Y            4.4328115850      -18.0185753700        9.0771834992  MEMB      18              0.0000000000
      1895        18  SOPE      C313            3.2976054951      -16.2407086612        8.5952669652  MEMB      18              0.0000000000
      1896        18  SOPE      H13X            4.0360763891      -15.7362503711        9.2609655658  MEMB      18              0.0000000000
      1897        18  SOPE      H13Y            2.2862976141      -15.8544248206        8.8543529929  MEMB      18              0.0000000000
      1898        18  SOPE      C314            3.6241848461      -15.9359717667        7.1158424270  MEMB      18              0.0000000000
      1899        18  SOPE      H14X            4.7181828345      -16.1013307521        6.9896926249  MEMB      18              0.0000000000
      1900        18  SOPE      H14Y            3.4042543297      -14.8649510230        6.9122723303  MEMB      18              0.0000000000
      1901        18  SOPE      C315            2.8058412963      -16.7535711482        6.0906584696  MEMB      18              0.0000000000
      1902        18  SOPE      H15X            1.7280876934      -16.5392685197        6.2500329115  MEMB      18              0.0000000000
      1903        18  SOPE      H15Y            2.9890357223      -17.8249626952        6.3193736695  MEMB      18              0.0000000000
      1904        18  SOPE      C316            3.1176590528      -16.5267336982        4.5909466064  MEMB      18              0.0000000000
      1905        18  SOPE      H16X            4.2095756824      -16.3461441282        4.5121068619  MEMB      18              0.0000000000
      1906        18  SOPE      H16Y            2.6377039684      -15.6008197794        4.1953997119  MEMB      18              0.0000000000
      1907        18  SOPE      C317            2.7512535023      -17.7578133624        3.7208809145  MEMB      18              0.0000000000
      1908        18  SOPE      H17X            1.7036517541      -18.0919325282        3.8986188642  MEMB      18              0.0000000000
      1909        18  SOPE      H17Y            3.3962962129      -18.6156374203        4.0104447433  MEMB      18              0.0000000000
      1910        18  SOPE      C318            2.9063610213      -17.5554645623        2.2168991801  MEMB      18              0.0000000000
      1911        18  SOPE      H18X            2.7429644515      -18.5138438948        1.6911655070  MEMB      18              0.0000000000
      1912        18  SOPE      H18Y            3.9259181798      -17.1957914867        1.9636560953  MEMB      18              0.0000000000
      1913        18  SOPE      H18Z            2.1333678070      -16.8410131202        1.8657386237  MEMB      18              0.0000000000
      1914        19  CHL1      C3            -18.1370680071        2.5520079569       17.3511848456  MEMB      19              0.0000000000
      1915        19  CHL1      H3            -17.0755063048        2.3528725980       17.0579468979  MEMB      19              0.0000000000
      1916        19  CHL1      O3            -18.2428390141        2.6760757638       18.7533854919  MEMB      19              0.0000000000
      1917        19  CHL1      H3'           -19.1500035552        2.9716684517       18.8251586478  MEMB      19              0.0000000000
      1918        19  CHL1      C4            -18.6208270986        3.8576077704       16.7517505823  MEMB      19              0.0000000000
      1919        19  CHL1      H4A           -19.6216157723        4.1723231978       17.1004837227  MEMB      19              0.0000000000
      1920        19  CHL1      H4B           -17.9285097970        4.6816918247       17.0602002789  MEMB      19              0.0000000000
      1921        19  CHL1      C5            -18.6737559731        3.5983984592       15.2761222424  MEMB      19              0.0000000000
      1922        19  CHL1      C6            -17.8923310635        4.1897370299       14.5071291802  MEMB      19              0.0000000000
      1923        19  CHL1      H6            -17.2050239301        4.8081584673       14.9833046466  MEMB      19              0.0000000000
      1924        19  CHL1      C7            -17.8703101356        4.0889067104       13.0602195155  MEMB      19              0.0000000000
      1925        19  CHL1      H7A           -18.2441299591        4.9913141746       12.7669433142  MEMB      19              0.0000000000
      1926        19  CHL1      H7B           -16.8390653969        3.9790493169       12.7140566364  MEMB      19              0.0000000000
      1927        19  CHL1      C8            -18.9651505571        3.4390233591       12.3120632969  MEMB      19              0.0000000000
      1928        19  CHL1      H8            -19.9211648534        4.0261323473       12.3661662739  MEMB      19              0.0000000000
      1929        19  CHL1      C14           -18.5742281275        3.2078814350       10.8829720108  MEMB      19              0.0000000000
      1930        19  CHL1      H14           -17.5451834440        2.7615207386       10.8933895603  MEMB      19              0.0000000000
      1931        19  CHL1      C15           -18.4962445043        4.3405236780        9.9250075011  MEMB      19              0.0000000000
      1932        19  CHL1      H15A          -19.2132606377        5.1829734495        9.9384570186  MEMB      19              0.0000000000
      1933        19  CHL1      H15B          -17.4421859252        4.6345166232        9.7955793529  MEMB      19              0.0000000000
      1934        19  CHL1      C16           -18.6885768644        3.7348906176        8.6435115825  MEMB      19              0.0000000000
      1935        19  CHL1      H16A          -19.2245349739        4.4086432657        7.9580851405  MEMB      19              0.0000000000
      1936        19  CHL1      H16B          -17.6950047591        3.5293483355        8.3883882240  MEMB      19              0.0000000000
      1937        19  CHL1      C17           -18.9320684710        2.3035378721        8.7502143098  MEMB      19              0.0000000000
      1938        19  CHL1      H17           -17.9636731328        1.7065595272        8.7480741574  MEMB      19              0.0000000000
      1939        19  CHL1      C13           -19.4798987032        2.2626962200       10.1684647151  MEMB      19              0.0000000000
      1940        19  CHL1      C18           -20.8964311243        2.8678193792       10.1706118036  MEMB      19              0.0000000000
      1941        19  CHL1      H18A          -20.9219315204        3.9351052981        9.8839279860  MEMB      19              0.0000000000
      1942        19  CHL1      H18B          -21.5047474830        2.3192199255        9.4467521467  MEMB      19              0.0000000000
      1943        19  CHL1      H18C          -21.3722798463        2.7897250872       11.1604751050  MEMB      19              0.0000000000
      1944        19  CHL1      C12           -19.3190016521        0.9669121953       10.9216879547  MEMB      19              0.0000000000
      1945        19  CHL1      H12A          -19.9464571853        0.2029125991       10.4554441606  MEMB      19              0.0000000000
      1946        19  CHL1      H12B          -18.2511431753        0.6623636119       10.8568779383  MEMB      19              0.0000000000
      1947        19  CHL1      C11           -19.6986053664        1.1336837549       12.3959174270  MEMB      19              0.0000000000
      1948        19  CHL1      H11A          -20.7665338688        1.3981193466       12.4751800013  MEMB      19              0.0000000000
      1949        19  CHL1      H11B          -19.4898876990        0.2030046830       12.9366985195  MEMB      19              0.0000000000
      1950        19  CHL1      C9            -18.9388487869        2.2153965143       13.1128822946  MEMB      19              0.0000000000
      1951        19  CHL1      H9            -17.8444965714        1.9122670587       13.1286637612  MEMB      19              0.0000000000
      1952        19  CHL1      C10           -19.3539772829        2.4890263036       14.5999894610  MEMB      19              0.0000000000
      1953        19  CHL1      C19           -20.7773900361        3.0227285121       14.7284734891  MEMB      19              0.0000000000
      1954        19  CHL1      H19A          -21.1034876667        3.7773127482       13.9925715790  MEMB      19              0.0000000000
      1955        19  CHL1      H19B          -21.2995588110        2.1323559523       14.5343719375  MEMB      19              0.0000000000
      1956        19  CHL1      H19C          -21.1131760602        3.3289283074       15.7353260487  MEMB      19              0.0000000000
      1957        19  CHL1      C1            -19.0635223248        1.2062693445       15.3837045083  MEMB      19              0.0000000000
      1958        19  CHL1      H1A           -19.7978025996        0.4450648365       15.0568172065  MEMB      19              0.0000000000
      1959        19  CHL1      H1B           -18.0800141904        0.7610215508       15.1080100785  MEMB      19              0.0000000000
      1960        19  CHL1      C2            -19.0517254072        1.4022007912       16.9022281858  MEMB      19              0.0000000000
      1961        19  CHL1      H2A           -18.7069024862        0.4519273016       17.3593326666  MEMB      19              0.0000000000
      1962        19  CHL1      H2B           -20.0866093044        1.6373864157       17.2277524137  MEMB      19              0.0000000000
      1963        19  CHL1      C20           -19.7291559433        2.0934052682        7.4963934167  MEMB      19              0.0000000000
      1964        19  CHL1      H20           -20.6223219821        2.7323690448        7.4278539745  MEMB      19              0.0000000000
      1965        19  CHL1      C21           -20.1657252891        0.8209675434        7.6566252045  MEMB      19              0.0000000000
      1966        19  CHL1      H21A          -20.7564823741        0.4881901065        6.7971818607  MEMB      19              0.0000000000
      1967        19  CHL1      H21B          -20.8452655662        0.5895920582        8.4346435660  MEMB      19              0.0000000000
      1968        19  CHL1      H21C          -19.1874277992        0.2706499496        7.8097629495  MEMB      19              0.0000000000
      1969        19  CHL1      C22           -18.9765285269        1.9488485617        6.1691611294  MEMB      19              0.0000000000
      1970        19  CHL1      H22A          -18.6961852429        2.9690744335        5.9943241908  MEMB      19              0.0000000000
      1971        19  CHL1      H22B          -18.1304445031        1.2082653028        6.1805812505  MEMB      19              0.0000000000
      1972        19  CHL1      C23           -19.7688902964        1.8632961787        4.8832244225  MEMB      19              0.0000000000
      1973        19  CHL1      H23A          -20.5867969606        1.1332472215        4.9710753334  MEMB      19              0.0000000000
      1974        19  CHL1      H23B          -20.1747639037        2.8731849669        4.6448417214  MEMB      19              0.0000000000
      1975        19  CHL1      C24           -18.8541197569        1.4216358066        3.7889926981  MEMB      19              0.0000000000
      1976        19  CHL1      H24A          -17.9115242347        2.0157143543        3.6813941254  MEMB      19              0.0000000000
      1977        19  CHL1      H24B          -18.5540858915        0.3624651511        4.0107457726  MEMB      19              0.0000000000
      1978        19  CHL1      C25           -19.4993631282        1.4161463093        2.4465137324  MEMB      19              0.0000000000
      1979        19  CHL1      H25           -20.4813246733        0.8851151190        2.4656706994  MEMB      19              0.0000000000
      1980        19  CHL1      C26           -19.8100599613        2.8688499181        1.9532777481  MEMB      19              0.0000000000
      1981        19  CHL1      H26A          -18.8731098795        3.4423133204        1.8477455903  MEMB      19              0.0000000000
      1982        19  CHL1      H26B          -20.3468703132        3.0289694723        0.9958526934  MEMB      19              0.0000000000
      1983        19  CHL1      H26C          -20.4996203499        3.3416046785        2.6536941826  MEMB      19              0.0000000000
      1984        19  CHL1      C27           -18.3074416059        0.5860742432        1.9191437344  MEMB      19              0.0000000000
      1985        19  CHL1      H27A          -18.6459476664        0.1279670810        1.1222586362  MEMB      19              0.0000000000
      1986        19  CHL1      H27B          -17.5213061231        1.1078105005        1.3547148665  MEMB      19              0.0000000000
      1987        19  CHL1      H27C          -18.2937258559       -0.5074861390        1.9954516267  MEMB      19              0.0000000000
      1988        20  SAPE      N             -15.0994258693       -6.4744614820       21.1967826923  MEMB      20              0.0000000000
      1989        20  SAPE      HN1           -14.2732771639       -6.6401367109       21.8035451529  MEMB      20              0.0000000000
      1990        20  SAPE      HN2           -15.1998020437       -7.2308979425       20.4849578283  MEMB      20              0.0000000000
      1991        20  SAPE      HN3           -15.0006632547       -5.5538521522       20.7242266430  MEMB      20              0.0000000000
      1992        20  SAPE      C12           -16.3995434970       -6.3034422807       21.9230293783  MEMB      20              0.0000000000
      1993        20  SAPE      H12A          -16.4423811980       -5.3249441281       22.4137697458  MEMB      20              0.0000000000
      1994        20  SAPE      H12B          -16.5244089319       -7.1759457609       22.6138845231  MEMB      20              0.0000000000
      1995        20  SAPE      C11           -17.5414123755       -6.3589944468       20.9291860498  MEMB      20              0.0000000000
      1996        20  SAPE      H11A          -18.5892527224       -6.4021764253       21.2681520295  MEMB      20              0.0000000000
      1997        20  SAPE      H11B          -17.4008468361       -7.4265085329       20.9345853569  MEMB      20              0.0000000000
      1998        20  SAPE      P             -18.4512905220       -4.6161435498       19.2817896235  MEMB      20              0.0000000000
      1999        20  SAPE      O13           -19.4851752900       -5.2183204837       18.4176849608  MEMB      20              0.0000000000
      2000        20  SAPE      O14           -18.8692385740       -4.0272500393       20.5763233858  MEMB      20              0.0000000000
      2001        20  SAPE      O12           -17.3227566943       -5.7017290050       19.6529994813  MEMB      20              0.0000000000
      2002        20  SAPE      O11           -17.6869306069       -3.5316753388       18.4525244348  MEMB      20              0.0000000000
      2003        20  SAPE      C1            -16.6007723733       -3.7931364108       17.5905450895  MEMB      20              0.0000000000
      2004        20  SAPE      HA            -15.7022389325       -3.3969854669       18.0966607477  MEMB      20              0.0000000000
      2005        20  SAPE      HB            -16.4437121777       -4.8746846157       17.3372201468  MEMB      20              0.0000000000
      2006        20  SAPE      C2            -16.7905902928       -3.0771154145       16.2459801821  MEMB      20              0.0000000000
      2007        20  SAPE      HS            -16.8248791200       -1.9727855087       16.4007089063  MEMB      20              0.0000000000
      2008        20  SAPE      O21           -17.9455804511       -3.5891833946       15.6061608068  MEMB      20              0.0000000000
      2009        20  SAPE      C21           -18.9569325952       -2.8265330017       15.4929761737  MEMB      20              0.0000000000
      2010        20  SAPE      O22           -19.1189478125       -1.6945913272       15.9126983929  MEMB      20              0.0000000000
      2011        20  SAPE      C22           -19.8501853808       -3.5558392998       14.5710615397  MEMB      20              0.0000000000
      2012        20  SAPE      H2R           -19.4902611826       -3.6355666592       13.5246317668  MEMB      20              0.0000000000
      2013        20  SAPE      H2S           -19.9946738351       -4.5891564722       14.9690842118  MEMB      20              0.0000000000
      2014        20  SAPE      C3            -15.5912775350       -3.3830303028       15.3466382024  MEMB      20              0.0000000000
      2015        20  SAPE      HX            -14.7071451362       -3.3912848714       16.0234770739  MEMB      20              0.0000000000
      2016        20  SAPE      HY            -15.5066789008       -2.5687111962       14.5903716717  MEMB      20              0.0000000000
      2017        20  SAPE      O31           -15.7853902906       -4.6553605660       14.7111233753  MEMB      20              0.0000000000
      2018        20  SAPE      C31           -14.7049291875       -5.1797398170       14.2017737652  MEMB      20              0.0000000000
      2019        20  SAPE      O32           -13.5700043428       -4.7902053815       14.3817113064  MEMB      20              0.0000000000
      2020        20  SAPE      C32           -15.1215260915       -6.2331536671       13.2312100740  MEMB      20              0.0000000000
      2021        20  SAPE      H2X           -15.3605440169       -7.1638101977       13.7890245014  MEMB      20              0.0000000000
      2022        20  SAPE      H2Y           -14.2988290027       -6.4841081401       12.5227409248  MEMB      20              0.0000000000
      2023        20  SAPE      C23           -21.1398538230       -2.8692696995       14.4734496818  MEMB      20              0.0000000000
      2024        20  SAPE      H3R           -21.1290747266       -2.1428189564       13.6156369387  MEMB      20              0.0000000000
      2025        20  SAPE      H3S           -21.4942262614       -2.2616320740       15.3353455657  MEMB      20              0.0000000000
      2026        20  SAPE      C24           -22.0247339740       -4.0846929290       14.2543238495  MEMB      20              0.0000000000
      2027        20  SAPE      H4R           -22.4971886062       -3.3681777019       13.6492089974  MEMB      20              0.0000000000
      2028        20  SAPE      H4S           -22.6064675810       -4.3447714466       15.1719011130  MEMB      20              0.0000000000
      2029        20  SAPE      C25           -22.0021607395       -5.1790409362       13.2350133973  MEMB      20              0.0000000000
      2030        20  SAPE      H5R           -22.3598703789       -6.1312048472       13.6333622561  MEMB      20              0.0000000000
      2031        20  SAPE      C26           -21.6759486642       -5.1174782438       11.9352268750  MEMB      20              0.0000000000
      2032        20  SAPE      H6R           -21.8144405735       -6.0328926362       11.3525088799  MEMB      20              0.0000000000
      2033        20  SAPE      C27           -21.2337169849       -3.9465449253       11.1106004148  MEMB      20              0.0000000000
      2034        20  SAPE      H7R           -20.1724012187       -3.6780616945       11.1861605333  MEMB      20              0.0000000000
      2035        20  SAPE      H7S           -21.7159111468       -3.0217013907       11.5047545861  MEMB      20              0.0000000000
      2036        20  SAPE      C28           -21.6275068198       -4.2761601511        9.6830175995  MEMB      20              0.0000000000
      2037        20  SAPE      H8R           -22.6370188879       -4.6984916294        9.5762975353  MEMB      20              0.0000000000
      2038        20  SAPE      C29           -21.0315073998       -3.8865951096        8.5761336776  MEMB      20              0.0000000000
      2039        20  SAPE      H9R           -21.6409729802       -3.7485479141        7.6637076080  MEMB      20              0.0000000000
      2040        20  SAPE      C210          -19.8274955690       -3.0578599019        8.6063030150  MEMB      20              0.0000000000
      2041        20  SAPE      H10R          -19.0331546650       -3.6061744925        8.1315346592  MEMB      20              0.0000000000
      2042        20  SAPE      H10S          -19.4988830245       -2.6851727230        9.6086282338  MEMB      20              0.0000000000
      2043        20  SAPE      C211          -19.9220952586       -1.9257451127        7.7487405928  MEMB      20              0.0000000000
      2044        20  SAPE      H11R          -20.0361094832       -1.1752297982        8.5284211673  MEMB      20              0.0000000000
      2045        20  SAPE      C212          -19.9943534929       -1.7471309596        6.4021517529  MEMB      20              0.0000000000
      2046        20  SAPE      H12R          -19.7915910021       -0.7816542925        5.8947853635  MEMB      20              0.0000000000
      2047        20  SAPE      C213          -19.9973561182       -2.8210404540        5.4270650679  MEMB      20              0.0000000000
      2048        20  SAPE      H13R          -19.8683139086       -3.7488395547        5.9926798388  MEMB      20              0.0000000000
      2049        20  SAPE      H13S          -19.1087876487       -2.6715183790        4.7801094494  MEMB      20              0.0000000000
      2050        20  SAPE      C214          -21.3328944588       -2.8741708907        4.7408683525  MEMB      20              0.0000000000
      2051        20  SAPE      H14R          -22.2126507805       -2.5683906546        5.3259288291  MEMB      20              0.0000000000
      2052        20  SAPE      C215          -21.4844518026       -3.3042646094        3.4956735422  MEMB      20              0.0000000000
      2053        20  SAPE      H15R          -22.4815927654       -3.4994886359        3.0721663710  MEMB      20              0.0000000000
      2054        20  SAPE      C216          -20.3312723192       -3.7638954622        2.6899405597  MEMB      20              0.0000000000
      2055        20  SAPE      H16R          -20.5000865039       -4.7889579595        2.5373848993  MEMB      20              0.0000000000
      2056        20  SAPE      H16S          -19.3636215967       -3.9295255776        3.2002705462  MEMB      20              0.0000000000
      2057        20  SAPE      C217          -20.0941521089       -2.9474993114        1.4543136716  MEMB      20              0.0000000000
      2058        20  SAPE      H17R          -19.9682806071       -1.8829304965        1.7326636668  MEMB      20              0.0000000000
      2059        20  SAPE      H17S          -20.8399504095       -2.9582567842        0.6240551754  MEMB      20              0.0000000000
      2060        20  SAPE      C218          -18.7837284800       -3.3874027467        0.9421212567  MEMB      20              0.0000000000
      2061        20  SAPE      H18R          -18.8131178505       -4.3709421285        0.4557564319  MEMB      20              0.0000000000
      2062        20  SAPE      H18S          -17.9104985332       -3.4646959641        1.6046562250  MEMB      20              0.0000000000
      2063        20  SAPE      C219          -18.3057112084       -2.2940488857        0.1142579986  MEMB      20              0.0000000000
      2064        20  SAPE      H19R          -17.2749044050       -2.6536486596        0.0152826663  MEMB      20              0.0000000000
      2065        20  SAPE      H19S          -18.3421816385       -1.2715366239        0.2430042612  MEMB      20              0.0000000000
      2066        20  SAPE      C220          -18.9729353595       -2.1654938792       -1.0883037160  MEMB      20              0.0000000000
      2067        20  SAPE      H20R          -18.4125527031       -1.7293815680       -1.9455409905  MEMB      20              0.0000000000
      2068        20  SAPE      H20S          -20.0518964532       -2.3853998135       -1.2629613358  MEMB      20              0.0000000000
      2069        20  SAPE      H20T          -18.6892056462       -3.1272709729       -1.1234685128  MEMB      20              0.0000000000
      2070        20  SAPE      C33           -16.2758530276       -5.6285299221       12.3988150928  MEMB      20              0.0000000000
      2071        20  SAPE      H3X           -15.8429210465       -5.0085744088       11.6007322142  MEMB      20              0.0000000000
      2072        20  SAPE      H3Y           -17.1583917743       -5.1886547851       12.9231316179  MEMB      20              0.0000000000
      2073        20  SAPE      C34           -16.9420166097       -6.7192582531       11.7501453253  MEMB      20              0.0000000000
      2074        20  SAPE      H4X           -17.5766891921       -7.1058348478       12.5726017046  MEMB      20              0.0000000000
      2075        20  SAPE      H4Y           -16.0731809857       -7.3957494240       11.6682996930  MEMB      20              0.0000000000
      2076        20  SAPE      C35           -17.8594539147       -6.5358742579       10.5404312333  MEMB      20              0.0000000000
      2077        20  SAPE      H5X           -18.7798071468       -6.0531345149       10.9144391015  MEMB      20              0.0000000000
      2078        20  SAPE      H5Y           -18.1272827302       -7.5331239270       10.1334436188  MEMB      20              0.0000000000
      2079        20  SAPE      C36           -17.2596374562       -5.8297824827        9.3439997330  MEMB      20              0.0000000000
      2080        20  SAPE      H6X           -16.1968648862       -6.0983781120        9.2288041431  MEMB      20              0.0000000000
      2081        20  SAPE      H6Y           -17.2183434288       -4.7669903119        9.5566535129  MEMB      20              0.0000000000
      2082        20  SAPE      C37           -17.9747160630       -6.1715244495        8.0274746896  MEMB      20              0.0000000000
      2083        20  SAPE      H7X           -18.9997290184       -5.7846867615        8.0167496204  MEMB      20              0.0000000000
      2084        20  SAPE      H7Y           -18.1415565619       -7.2501225190        8.0213283226  MEMB      20              0.0000000000
      2085        20  SAPE      C38           -17.1742186122       -5.6906323845        6.7988039432  MEMB      20              0.0000000000
      2086        20  SAPE      H8X           -16.0994055775       -5.9353137435        6.9223662797  MEMB      20              0.0000000000
      2087        20  SAPE      H8Y           -17.2450267841       -4.5886592543        6.8159194890  MEMB      20              0.0000000000
      2088        20  SAPE      C39           -17.7150422980       -6.1427524433        5.4307382645  MEMB      20              0.0000000000
      2089        20  SAPE      H9X           -18.8229762870       -6.0993799734        5.4918142083  MEMB      20              0.0000000000
      2090        20  SAPE      H9Y           -17.4051003819       -7.1613265106        5.1328348069  MEMB      20              0.0000000000
      2091        20  SAPE      C310          -17.1399086264       -5.4855157859        4.1825057271  MEMB      20              0.0000000000
      2092        20  SAPE      H10X          -17.3222844140       -4.4025473523        4.1680356837  MEMB      20              0.0000000000
      2093        20  SAPE      H10Y          -17.6774397051       -5.9568961117        3.3207107292  MEMB      20              0.0000000000
      2094        20  SAPE      C311          -15.6410305551       -5.7720626430        4.0411555910  MEMB      20              0.0000000000
      2095        20  SAPE      H11X          -15.5593754584       -6.8573061015        3.8085719157  MEMB      20              0.0000000000
      2096        20  SAPE      H11Y          -15.1215339841       -5.6150840594        5.0088823174  MEMB      20              0.0000000000
      2097        20  SAPE      C312          -14.9412447865       -4.9492039504        2.9495531549  MEMB      20              0.0000000000
      2098        20  SAPE      H12X          -14.7090342845       -3.9109656374        3.2810181881  MEMB      20              0.0000000000
      2099        20  SAPE      H12Y          -15.6407278854       -4.8616035122        2.0894289502  MEMB      20              0.0000000000
      2100        20  SAPE      C313          -13.6247032678       -5.6110265403        2.5238319664  MEMB      20              0.0000000000
      2101        20  SAPE      H13X          -12.9922329429       -5.7890572317        3.4215631434  MEMB      20              0.0000000000
      2102        20  SAPE      H13Y          -13.0426104428       -4.9487301686        1.8451845204  MEMB      20              0.0000000000
      2103        20  SAPE      C314          -13.8095127483       -6.9742011876        1.8569894678  MEMB      20              0.0000000000
      2104        20  SAPE      H14X          -14.2644856813       -7.7105449210        2.5563605452  MEMB      20              0.0000000000
      2105        20  SAPE      H14Y          -12.7826576535       -7.3449836232        1.6491815470  MEMB      20              0.0000000000
      2106        20  SAPE      C315          -14.5645240914       -6.8943542704        0.5280687873  MEMB      20              0.0000000000
      2107        20  SAPE      H15X          -14.2985168359       -5.9393625514        0.0217411191  MEMB      20              0.0000000000
      2108        20  SAPE      H15Y          -15.6617439256       -6.8521379906        0.7139879071  MEMB      20              0.0000000000
      2109        20  SAPE      C316          -14.1621649428       -8.0766388112       -0.3647437281  MEMB      20              0.0000000000
      2110        20  SAPE      H16X          -14.5657553033       -9.0077517940        0.0889884372  MEMB      20              0.0000000000
      2111        20  SAPE      H16Y          -13.0580964444       -8.1560052640       -0.4095357943  MEMB      20              0.0000000000
      2112        20  SAPE      C317          -14.7224528111       -8.0165113498       -1.7576707899  MEMB      20              0.0000000000
      2113        20  SAPE      H17X          -14.6428476922       -9.0139563099       -2.2725231390  MEMB      20              0.0000000000
      2114        20  SAPE      H17Y          -14.2368949935       -7.2752286837       -2.4267071512  MEMB      20              0.0000000000
      2115        20  SAPE      C318          -16.1523170369       -7.5991819433       -1.6941018760  MEMB      20              0.0000000000
      2116        20  SAPE      H18X          -16.4116060313       -6.5601703909       -1.5838456445  MEMB      20              0.0000000000
      2117        20  SAPE      H18Y          -16.7930195622       -8.2421930406       -1.0301547035  MEMB      20              0.0000000000
      2118        20  SAPE      H18Z          -16.3448208577       -7.6438634370       -2.7711469850  MEMB      20              0.0000000000
      2119        21  CHL1      C3             -6.0082144325       17.5310941221       17.3679688230  MEMB      21              0.0000000000
      2120        21  CHL1      H3             -6.7277515601       16.6883817806       17.4934996409  MEMB      21              0.0000000000
      2121        21  CHL1      O3             -5.8155690631       18.1316217435       18.6374351800  MEMB      21              0.0000000000
      2122        21  CHL1      H3'            -6.5938994403       18.6900717821       18.7648526317  MEMB      21              0.0000000000
      2123        21  CHL1      C4             -4.6543098509       17.0517093694       16.8115548158  MEMB      21              0.0000000000
      2124        21  CHL1      H4A            -3.9671676882       17.9268566810       16.8138675155  MEMB      21              0.0000000000
      2125        21  CHL1      H4B            -4.2227394248       16.3356324134       17.5279229870  MEMB      21              0.0000000000
      2126        21  CHL1      C5             -4.6821349473       16.4975295697       15.4051480003  MEMB      21              0.0000000000
      2127        21  CHL1      C6             -4.2256920093       15.2816655112       15.0373269521  MEMB      21              0.0000000000
      2128        21  CHL1      H6             -3.8786654960       14.5625012703       15.7893872197  MEMB      21              0.0000000000
      2129        21  CHL1      C7             -4.1620144539       14.7928979455       13.6184286710  MEMB      21              0.0000000000
      2130        21  CHL1      H7A            -3.2103087568       14.2602675857       13.3797456028  MEMB      21              0.0000000000
      2131        21  CHL1      H7B            -4.9860798470       14.0661064256       13.5132387597  MEMB      21              0.0000000000
      2132        21  CHL1      C8             -4.4973611011       15.8647635165       12.5608763636  MEMB      21              0.0000000000
      2133        21  CHL1      H8             -3.6672896218       16.3916379525       12.2126397449  MEMB      21              0.0000000000
      2134        21  CHL1      C14            -4.7427523916       15.2795325808       11.2147953967  MEMB      21              0.0000000000
      2135        21  CHL1      H14            -5.6263134954       14.6282865212       11.3706961892  MEMB      21              0.0000000000
      2136        21  CHL1      C15            -3.6098060624       14.4150339873       10.6918203889  MEMB      21              0.0000000000
      2137        21  CHL1      H15A           -2.6788912044       15.0308413607       10.6388933244  MEMB      21              0.0000000000
      2138        21  CHL1      H15B           -3.4026770482       13.4978117197       11.2829601778  MEMB      21              0.0000000000
      2139        21  CHL1      C16            -4.1354185858       14.1373424105        9.2984887769  MEMB      21              0.0000000000
      2140        21  CHL1      H16A           -3.4218438101       14.4400060963        8.5686559860  MEMB      21              0.0000000000
      2141        21  CHL1      H16B           -4.3628718527       13.0735049146        9.1264382200  MEMB      21              0.0000000000
      2142        21  CHL1      C17            -5.2149169559       15.2028610695        8.9432503243  MEMB      21              0.0000000000
      2143        21  CHL1      H17            -6.1689324503       14.6841390046        9.1125005062  MEMB      21              0.0000000000
      2144        21  CHL1      C13            -5.1031038025       16.2466513686       10.0677783460  MEMB      21              0.0000000000
      2145        21  CHL1      C18            -4.0669160277       17.2814661560        9.6152099948  MEMB      21              0.0000000000
      2146        21  CHL1      H18A           -4.4849765898       18.1095393003        9.0142741004  MEMB      21              0.0000000000
      2147        21  CHL1      H18B           -3.6855781621       17.8095027029       10.4593413674  MEMB      21              0.0000000000
      2148        21  CHL1      H18C           -3.2061258624       16.8330843675        9.0921587962  MEMB      21              0.0000000000
      2149        21  CHL1      C12            -6.3270774716       17.0035579650       10.5620498171  MEMB      21              0.0000000000
      2150        21  CHL1      H12A           -6.7280712323       17.6936917885        9.7979172527  MEMB      21              0.0000000000
      2151        21  CHL1      H12B           -7.0817072938       16.2158746327       10.7432890201  MEMB      21              0.0000000000
      2152        21  CHL1      C11            -6.0144777781       17.7766723006       11.8741292657  MEMB      21              0.0000000000
      2153        21  CHL1      H11A           -5.2898482088       18.5974993813       11.6754501450  MEMB      21              0.0000000000
      2154        21  CHL1      H11B           -6.9502003078       18.2481552895       12.2203805872  MEMB      21              0.0000000000
      2155        21  CHL1      C9             -5.5393660544       16.8543286008       13.0350698417  MEMB      21              0.0000000000
      2156        21  CHL1      H9             -6.3970045259       16.1781222593       13.2645160599  MEMB      21              0.0000000000
      2157        21  CHL1      C10            -5.2710857236       17.5265717821       14.4278193104  MEMB      21              0.0000000000
      2158        21  CHL1      C19            -4.3285127658       18.7321845663       14.4108798345  MEMB      21              0.0000000000
      2159        21  CHL1      H19A           -4.2465971642       19.4185409722       15.2474856758  MEMB      21              0.0000000000
      2160        21  CHL1      H19B           -3.3582828069       18.3210838846       14.7156827724  MEMB      21              0.0000000000
      2161        21  CHL1      H19C           -4.2727192169       19.2620321897       13.4337185715  MEMB      21              0.0000000000
      2162        21  CHL1      C1             -6.5885080619       18.0979176278       14.9685787247  MEMB      21              0.0000000000
      2163        21  CHL1      H1A            -6.8542420185       18.9381901428       14.2969303117  MEMB      21              0.0000000000
      2164        21  CHL1      H1B            -7.3592260825       17.3109076031       14.8768416929  MEMB      21              0.0000000000
      2165        21  CHL1      C2             -6.5461567517       18.6023976324       16.4255233053  MEMB      21              0.0000000000
      2166        21  CHL1      H2A            -7.5504723005       18.9348288842       16.7540072179  MEMB      21              0.0000000000
      2167        21  CHL1      H2B            -5.8505643708       19.4620455525       16.5331734487  MEMB      21              0.0000000000
      2168        21  CHL1      C20            -5.0962181906       15.6752644707        7.4655403713  MEMB      21              0.0000000000
      2169        21  CHL1      H20            -4.1630904851       16.2754632003        7.3381698748  MEMB      21              0.0000000000
      2170        21  CHL1      C21            -6.2795090043       16.5995131163        7.0957932779  MEMB      21              0.0000000000
      2171        21  CHL1      H21A           -7.2306736494       16.0397070956        7.0276675226  MEMB      21              0.0000000000
      2172        21  CHL1      H21B           -6.0707108796       17.0647933789        6.1132957529  MEMB      21              0.0000000000
      2173        21  CHL1      H21C           -6.4378872234       17.4394196048        7.8003347306  MEMB      21              0.0000000000
      2174        21  CHL1      C22            -4.8665217144       14.5035154390        6.4450796185  MEMB      21              0.0000000000
      2175        21  CHL1      H22A           -3.8243257828       14.1628085613        6.5159225153  MEMB      21              0.0000000000
      2176        21  CHL1      H22B           -5.4733629565       13.6231298037        6.7421374359  MEMB      21              0.0000000000
      2177        21  CHL1      C23            -5.0739535558       14.8243864557        4.9421148287  MEMB      21              0.0000000000
      2178        21  CHL1      H23A           -6.1526361491       14.6011656996        4.7802239103  MEMB      21              0.0000000000
      2179        21  CHL1      H23B           -4.8888526044       15.8877284191        4.7030989095  MEMB      21              0.0000000000
      2180        21  CHL1      C24            -4.1633175356       14.0180306377        3.9794433199  MEMB      21              0.0000000000
      2181        21  CHL1      H24A           -3.1221382769       13.9260012933        4.3400102207  MEMB      21              0.0000000000
      2182        21  CHL1      H24B           -4.5812716914       13.0213645827        3.9876872430  MEMB      21              0.0000000000
      2183        21  CHL1      C25            -4.0744667148       14.4095119276        2.4844116158  MEMB      21              0.0000000000
      2184        21  CHL1      H25            -3.8096915125       15.4876944625        2.3714689530  MEMB      21              0.0000000000
      2185        21  CHL1      C26            -2.9951434469       13.5738122295        1.7762047381  MEMB      21              0.0000000000
      2186        21  CHL1      H26A           -2.0311160263       13.7084704262        2.2722332518  MEMB      21              0.0000000000
      2187        21  CHL1      H26B           -3.1867930440       12.4894921110        1.8488395933  MEMB      21              0.0000000000
      2188        21  CHL1      H26C           -2.8964971075       13.8492449028        0.7054608673  MEMB      21              0.0000000000
      2189        21  CHL1      C27            -5.3944445739       14.1100825333        1.8086911053  MEMB      21              0.0000000000
      2190        21  CHL1      H27A           -5.3111867983       14.1647931347        0.7011129947  MEMB      21              0.0000000000
      2191        21  CHL1      H27B           -5.7003440970       13.0793098562        2.0902928351  MEMB      21              0.0000000000
      2192        21  CHL1      H27C           -6.1740698438       14.8023555669        2.1821326013  MEMB      21              0.0000000000
      2193        22  SOPE      N             -15.8221180725       13.2313719633       22.4902140344  MEMB      22              0.0000000000
      2194        22  SOPE      HN1           -16.2716632544       12.6526019718       23.2253563994  MEMB      22              0.0000000000
      2195        22  SOPE      HN2           -15.1851822649       13.9484144884       22.9143615145  MEMB      22              0.0000000000
      2196        22  SOPE      HN3           -16.5867721686       13.6803865281       21.9510257597  MEMB      22              0.0000000000
      2197        22  SOPE      C12           -14.9694903446       12.3551936758       21.5976608713  MEMB      22              0.0000000000
      2198        22  SOPE      H12A          -15.6703419820       11.7344852529       21.0024766927  MEMB      22              0.0000000000
      2199        22  SOPE      H12B          -14.3955152742       11.6796998501       22.2624656661  MEMB      22              0.0000000000
      2200        22  SOPE      C11           -14.0092688222       13.1851675381       20.7074111436  MEMB      22              0.0000000000
      2201        22  SOPE      H11A          -14.5914804586       13.9525800187       20.1605173717  MEMB      22              0.0000000000
      2202        22  SOPE      H11B          -13.5401480493       12.5346060339       19.9245753613  MEMB      22              0.0000000000
      2203        22  SOPE      P             -11.7350545899       14.4332594533       20.6641639413  MEMB      22              0.0000000000
      2204        22  SOPE      O13           -11.1888013472       13.4000173353       19.7631975475  MEMB      22              0.0000000000
      2205        22  SOPE      O14           -10.8248914295       15.1463865719       21.5796864529  MEMB      22              0.0000000000
      2206        22  SOPE      O12           -13.0034602228       13.8411341432       21.4849432773  MEMB      22              0.0000000000
      2207        22  SOPE      O11           -12.4780516575       15.5160993703       19.7513838849  MEMB      22              0.0000000000
      2208        22  SOPE      C1            -11.8271759560       15.9851603055       18.5643900873  MEMB      22              0.0000000000
      2209        22  SOPE      HA            -10.7578339081       15.6676736372       18.4895468306  MEMB      22              0.0000000000
      2210        22  SOPE      HB            -11.8075300218       17.0995249334       18.5553926448  MEMB      22              0.0000000000
      2211        22  SOPE      C2            -12.5304720190       15.5069051466       17.2616448616  MEMB      22              0.0000000000
      2212        22  SOPE      HS            -13.5156742243       16.0236652858       17.1953568111  MEMB      22              0.0000000000
      2213        22  SOPE      O21           -12.7324672990       14.0825107505       17.2494234568  MEMB      22              0.0000000000
      2214        22  SOPE      C21           -13.5780068903       13.6923777186       16.3120095811  MEMB      22              0.0000000000
      2215        22  SOPE      O22           -14.2345933694       14.4313968271       15.5970383104  MEMB      22              0.0000000000
      2216        22  SOPE      C22           -13.5822552018       12.1758266109       16.2454168333  MEMB      22              0.0000000000
      2217        22  SOPE      H2R           -14.2922145549       11.8752820009       15.4467271209  MEMB      22              0.0000000000
      2218        22  SOPE      H2S           -13.8881604291       11.7843118289       17.2357477177  MEMB      22              0.0000000000
      2219        22  SOPE      C3            -11.6133136698       15.8797510717       16.0753064726  MEMB      22              0.0000000000
      2220        22  SOPE      HX            -12.0419283831       15.4929524710       15.1309765891  MEMB      22              0.0000000000
      2221        22  SOPE      HY            -10.6570045725       15.3224882965       16.2367690565  MEMB      22              0.0000000000
      2222        22  SOPE      O31           -11.4663093107       17.3097113001       15.9606292508  MEMB      22              0.0000000000
      2223        22  SOPE      C31           -10.2618906938       17.8289289730       16.1386114687  MEMB      22              0.0000000000
      2224        22  SOPE      O32            -9.2801976925       17.2122504926       16.5042677075  MEMB      22              0.0000000000
      2225        22  SOPE      C32           -10.2758904765       19.2996286425       15.7425260092  MEMB      22              0.0000000000
      2226        22  SOPE      H2X            -9.4346078458       19.8154517374       16.2272426223  MEMB      22              0.0000000000
      2227        22  SOPE      H2Y           -11.1773085925       19.7910898482       16.1181806306  MEMB      22              0.0000000000
      2228        22  SOPE      C23           -12.1980206228       11.5937227307       15.9208627867  MEMB      22              0.0000000000
      2229        22  SOPE      H3R           -12.3416591716       10.5037690521       15.7942185139  MEMB      22              0.0000000000
      2230        22  SOPE      H3S           -11.5231552216       11.7504044286       16.7930332614  MEMB      22              0.0000000000
      2231        22  SOPE      C24           -11.6801839762       12.1628229872       14.5998926061  MEMB      22              0.0000000000
      2232        22  SOPE      H4R           -12.4928975195       12.0268340970       13.8509653589  MEMB      22              0.0000000000
      2233        22  SOPE      H4S           -11.4979207495       13.2549044178       14.7016111252  MEMB      22              0.0000000000
      2234        22  SOPE      C25           -10.3714360314       11.5629425102       14.0863054285  MEMB      22              0.0000000000
      2235        22  SOPE      H5R            -9.5661120400       11.9117819550       14.7649216775  MEMB      22              0.0000000000
      2236        22  SOPE      H5S           -10.4133254091       10.4473753693       14.1216831668  MEMB      22              0.0000000000
      2237        22  SOPE      C26           -10.0711148720       12.0273002197       12.6469529591  MEMB      22              0.0000000000
      2238        22  SOPE      H6R            -9.4740834911       11.2929868005       12.1112782108  MEMB      22              0.0000000000
      2239        22  SOPE      H6S           -11.0001624818       11.9872707102       12.0559253266  MEMB      22              0.0000000000
      2240        22  SOPE      C27            -9.3429636284       13.3814445946       12.5075899190  MEMB      22              0.0000000000
      2241        22  SOPE      H7R            -9.9432273462       14.1469045672       13.0481717377  MEMB      22              0.0000000000
      2242        22  SOPE      H7S            -8.3673780394       13.3438895299       13.0367352494  MEMB      22              0.0000000000
      2243        22  SOPE      C28            -9.1769671249       13.8216909682       11.0241005397  MEMB      22              0.0000000000
      2244        22  SOPE      H8R           -10.1924126120       13.7408610304       10.5945499719  MEMB      22              0.0000000000
      2245        22  SOPE      H8S            -8.9101216708       14.8938880011       10.9473458143  MEMB      22              0.0000000000
      2246        22  SOPE      C29            -8.2172480576       13.1190421220       10.1075550516  MEMB      22              0.0000000000
      2247        22  SOPE      H91            -7.2119212961       12.8837768339       10.4998229545  MEMB      22              0.0000000000
      2248        22  SOPE      C210           -8.5435626748       12.5908733193        8.9171376762  MEMB      22              0.0000000000
      2249        22  SOPE      H101           -7.7407933539       12.1295568252        8.3255960346  MEMB      22              0.0000000000
      2250        22  SOPE      C211           -9.9050151998       12.5978378217        8.2960780064  MEMB      22              0.0000000000
      2251        22  SOPE      H11R           -9.9540773459       13.5231428221        7.7005811740  MEMB      22              0.0000000000
      2252        22  SOPE      H11S          -10.7202998264       12.6549798782        9.0522961747  MEMB      22              0.0000000000
      2253        22  SOPE      C212          -10.3166275122       11.3442316973        7.5047540032  MEMB      22              0.0000000000
      2254        22  SOPE      H12R          -11.3094637212       11.5614981308        7.0566416241  MEMB      22              0.0000000000
      2255        22  SOPE      H12S          -10.4354067687       10.4910869716        8.2226419152  MEMB      22              0.0000000000
      2256        22  SOPE      C213           -9.3713325309       10.9050436789        6.3867879620  MEMB      22              0.0000000000
      2257        22  SOPE      H13R           -9.7971500672       10.0272927464        5.8573826597  MEMB      22              0.0000000000
      2258        22  SOPE      H13S           -8.4457902345       10.6014606129        6.8857096051  MEMB      22              0.0000000000
      2259        22  SOPE      C214           -8.8942685495       11.9632539083        5.3933734043  MEMB      22              0.0000000000
      2260        22  SOPE      H14R           -8.0670336899       11.5015920801        4.8072580954  MEMB      22              0.0000000000
      2261        22  SOPE      H14S           -8.4922496241       12.8176954163        5.9797578848  MEMB      22              0.0000000000
      2262        22  SOPE      C215           -9.9835593748       12.5302062583        4.4912698272  MEMB      22              0.0000000000
      2263        22  SOPE      H15R          -10.7210730689       12.9972068614        5.1770433733  MEMB      22              0.0000000000
      2264        22  SOPE      H15S          -10.4774081907       11.7245346331        3.9019765431  MEMB      22              0.0000000000
      2265        22  SOPE      C216           -9.4907078390       13.6722673385        3.6026618190  MEMB      22              0.0000000000
      2266        22  SOPE      H16R           -8.7599113038       14.3186921916        4.1158920049  MEMB      22              0.0000000000
      2267        22  SOPE      H16S          -10.3293675546       14.2669797030        3.1738393809  MEMB      22              0.0000000000
      2268        22  SOPE      C217           -8.8752012774       13.2205435470        2.3627297643  MEMB      22              0.0000000000
      2269        22  SOPE      H17R           -9.6434583435       12.4434247941        2.0628811762  MEMB      22              0.0000000000
      2270        22  SOPE      H17S           -7.9750787282       12.5753608951        2.5338455487  MEMB      22              0.0000000000
      2271        22  SOPE      C218           -8.5969556768       14.3860437741        1.3078757168  MEMB      22              0.0000000000
      2272        22  SOPE      H18R           -7.7077997331       14.1025638775        0.7126459733  MEMB      22              0.0000000000
      2273        22  SOPE      H18S           -8.1536459675       15.3089515014        1.6453933713  MEMB      22              0.0000000000
      2274        22  SOPE      H18T           -9.3161141496       14.5163375038        0.4582681245  MEMB      22              0.0000000000
      2275        22  SOPE      C33           -10.0823233455       19.4464244667       14.2234768828  MEMB      22              0.0000000000
      2276        22  SOPE      H3X            -9.3659593567       18.6816979753       13.8790076977  MEMB      22              0.0000000000
      2277        22  SOPE      H3Y            -9.6666566126       20.4584608648       14.0083888332  MEMB      22              0.0000000000
      2278        22  SOPE      C34           -11.3939731011       19.3457372327       13.4712696828  MEMB      22              0.0000000000
      2279        22  SOPE      H4X           -11.9244776660       20.1430513345       13.9971465775  MEMB      22              0.0000000000
      2280        22  SOPE      H4Y           -11.9000387908       18.3620373608       13.6151990970  MEMB      22              0.0000000000
      2281        22  SOPE      C35           -11.4350863462       19.8139470301       12.0171388952  MEMB      22              0.0000000000
      2282        22  SOPE      H5X           -11.4128546485       20.9272368918       11.9167553351  MEMB      22              0.0000000000
      2283        22  SOPE      H5Y           -12.4032684635       19.4982367968       11.5777599061  MEMB      22              0.0000000000
      2284        22  SOPE      C36           -10.2611121895       19.2443830432       11.2686859072  MEMB      22              0.0000000000
      2285        22  SOPE      H6X           -10.2233759627       18.1471292006       11.4113654856  MEMB      22              0.0000000000
      2286        22  SOPE      H6Y            -9.3634199336       19.6978149970       11.7367413390  MEMB      22              0.0000000000
      2287        22  SOPE      C37           -10.2674257379       19.5759376518        9.7877356477  MEMB      22              0.0000000000
      2288        22  SOPE      H7X            -9.3457889407       19.1726887398        9.3238124424  MEMB      22              0.0000000000
      2289        22  SOPE      H7Y           -10.3076463745       20.6883539993        9.7198661821  MEMB      22              0.0000000000
      2290        22  SOPE      C38           -11.4111462021       18.9204993055        9.0380517638  MEMB      22              0.0000000000
      2291        22  SOPE      H8X           -11.3301742932       19.0855063236        7.9436013380  MEMB      22              0.0000000000
      2292        22  SOPE      H8Y           -12.2920104966       19.4779479598        9.3594919037  MEMB      22              0.0000000000
      2293        22  SOPE      C39           -11.5377427124       17.4126850318        9.3182981587  MEMB      22              0.0000000000
      2294        22  SOPE      H9X           -11.6662392271       17.1773406291       10.3954591405  MEMB      22              0.0000000000
      2295        22  SOPE      H9Y           -10.6457111936       16.8807225334        8.9457575297  MEMB      22              0.0000000000
      2296        22  SOPE      C310          -12.7621435814       16.8422618743        8.6554485579  MEMB      22              0.0000000000
      2297        22  SOPE      H10X          -13.5151413814       17.4990992565        9.1211464008  MEMB      22              0.0000000000
      2298        22  SOPE      H10Y          -12.9774163113       15.7931277845        8.9308017205  MEMB      22              0.0000000000
      2299        22  SOPE      C311          -12.6907550997       16.9265911201        7.1432712448  MEMB      22              0.0000000000
      2300        22  SOPE      H11X          -12.6299323591       17.9996667058        6.9018718524  MEMB      22              0.0000000000
      2301        22  SOPE      H11Y          -13.5781681217       16.4313478228        6.6857614137  MEMB      22              0.0000000000
      2302        22  SOPE      C312          -11.4045749877       16.3873813246        6.5378659233  MEMB      22              0.0000000000
      2303        22  SOPE      H12X          -11.1147007874       15.5418848433        7.1680274984  MEMB      22              0.0000000000
      2304        22  SOPE      H12Y          -10.5924401235       17.1392369418        6.6781488127  MEMB      22              0.0000000000
      2305        22  SOPE      C313          -11.4989023619       15.8717131776        5.0819372780  MEMB      22              0.0000000000
      2306        22  SOPE      H13X          -12.2166098326       15.0384527977        5.0085991293  MEMB      22              0.0000000000
      2307        22  SOPE      H13Y          -10.4746663704       15.6420272879        4.7484564256  MEMB      22              0.0000000000
      2308        22  SOPE      C314          -11.8851450110       16.8628877888        4.0479630312  MEMB      22              0.0000000000
      2309        22  SOPE      H14X          -12.9011493522       17.0513181662        4.4962144954  MEMB      22              0.0000000000
      2310        22  SOPE      H14Y          -12.0747150640       16.6804800487        2.9786303498  MEMB      22              0.0000000000
      2311        22  SOPE      C315          -10.7927243535       17.9120819177        4.1660739762  MEMB      22              0.0000000000
      2312        22  SOPE      H15X          -10.7856989412       18.2454605729        5.2078190689  MEMB      22              0.0000000000
      2313        22  SOPE      H15Y          -11.0553549100       18.7161623145        3.5080560254  MEMB      22              0.0000000000
      2314        22  SOPE      C316           -9.4987148898       18.1210050069        3.4102281036  MEMB      22              0.0000000000
      2315        22  SOPE      H16X           -9.7176768547       17.9798842414        2.3240125773  MEMB      22              0.0000000000
      2316        22  SOPE      H16Y           -8.8970232231       17.3304451726        3.8591334624  MEMB      22              0.0000000000
      2317        22  SOPE      C317           -8.7600820194       19.4806212111        3.6939939471  MEMB      22              0.0000000000
      2318        22  SOPE      H17X           -7.7160382381       19.2761315874        3.3798334016  MEMB      22              0.0000000000
      2319        22  SOPE      H17Y           -8.7133215539       19.6511694145        4.7953654802  MEMB      22              0.0000000000
      2320        22  SOPE      C318           -9.1678045017       20.7989194612        2.9779357125  MEMB      22              0.0000000000
      2321        22  SOPE      H18X          -10.1489624691       21.2236548714        3.2302081283  MEMB      22              0.0000000000
      2322        22  SOPE      H18Y           -9.1942859331       20.6470594479        1.8843383236  MEMB      22              0.0000000000
      2323        22  SOPE      H18Z           -8.4603913624       21.6160600205        3.2410684511  MEMB      22              0.0000000000
      2324        23  SAPE      N              13.9646015520      -11.3058468228       19.0816687279  MEMB      23              0.0000000000
      2325        23  SAPE      HN1            13.2142275625      -11.6979685270       18.4858509018  MEMB      23              0.0000000000
      2326        23  SAPE      HN2            14.7481221885      -11.9901831471       19.1859101966  MEMB      23              0.0000000000
      2327        23  SAPE      HN3            13.6475499564      -11.1411248523       20.0562988572  MEMB      23              0.0000000000
      2328        23  SAPE      C12            14.4569110475      -10.0608593059       18.3772950271  MEMB      23              0.0000000000
      2329        23  SAPE      H12A           13.9181054419       -9.1773246402       18.7860496578  MEMB      23              0.0000000000
      2330        23  SAPE      H12B           14.2395708205      -10.1747853686       17.2967421919  MEMB      23              0.0000000000
      2331        23  SAPE      C11            15.9471670682       -9.8733935232       18.5853955089  MEMB      23              0.0000000000
      2332        23  SAPE      H11A           16.3117640268       -9.0504765023       17.9352584357  MEMB      23              0.0000000000
      2333        23  SAPE      H11B           16.5298997752      -10.7800677101       18.2865067794  MEMB      23              0.0000000000
      2334        23  SAPE      P              17.0318269468      -10.3407101705       20.9227977692  MEMB      23              0.0000000000
      2335        23  SAPE      O13            17.3898580530       -9.5528606399       22.1077863040  MEMB      23              0.0000000000
      2336        23  SAPE      O14            16.3480941342      -11.6348298053       21.0970529037  MEMB      23              0.0000000000
      2337        23  SAPE      O12            16.1207901424       -9.5016966987       19.9392512551  MEMB      23              0.0000000000
      2338        23  SAPE      O11            18.3017822491      -10.6259501691       20.0761550030  MEMB      23              0.0000000000
      2339        23  SAPE      C1             19.0386646900       -9.4995669981       19.6875775902  MEMB      23              0.0000000000
      2340        23  SAPE      HA             18.4937959447       -8.5163462447       19.6138699387  MEMB      23              0.0000000000
      2341        23  SAPE      HB             19.8722122334       -9.3492454378       20.4217327424  MEMB      23              0.0000000000
      2342        23  SAPE      C2             19.6659796266       -9.7876789932       18.3358476702  MEMB      23              0.0000000000
      2343        23  SAPE      HS             20.3213413044       -9.0617120075       18.3907179064  MEMB      23              0.0000000000
      2344        23  SAPE      O21            18.7793183462       -9.5943578163       17.2324791048  MEMB      23              0.0000000000
      2345        23  SAPE      C21            18.7341420754       -8.3146557903       16.8653588353  MEMB      23              0.0000000000
      2346        23  SAPE      O22            19.5084189047       -7.4434139389       17.2160998532  MEMB      23              0.0000000000
      2347        23  SAPE      C22            17.6345194024       -8.1414111436       15.8472516980  MEMB      23              0.0000000000
      2348        23  SAPE      H2R            16.7097542301       -7.7605698238       16.3024229736  MEMB      23              0.0000000000
      2349        23  SAPE      H2S            17.9623414693       -7.3582324533       15.1955139923  MEMB      23              0.0000000000
      2350        23  SAPE      C3             20.3227406382      -11.1755771433       18.2164906327  MEMB      23              0.0000000000
      2351        23  SAPE      HX             20.8492499007      -11.3702932012       19.1783424969  MEMB      23              0.0000000000
      2352        23  SAPE      HY             21.1386653889      -11.2149833760       17.4471086773  MEMB      23              0.0000000000
      2353        23  SAPE      O31            19.2995515636      -12.1432537288       18.0289769758  MEMB      23              0.0000000000
      2354        23  SAPE      C31            19.1246609699      -12.4715890193       16.7860530990  MEMB      23              0.0000000000
      2355        23  SAPE      O32            19.8508574002      -12.1682306355       15.8437566707  MEMB      23              0.0000000000
      2356        23  SAPE      C32            18.0047559275      -13.5078715684       16.7633394145  MEMB      23              0.0000000000
      2357        23  SAPE      H2X            17.0380515498      -13.0990358026       16.4972302497  MEMB      23              0.0000000000
      2358        23  SAPE      H2Y            18.0150150208      -14.0967074255       17.7250446716  MEMB      23              0.0000000000
      2359        23  SAPE      C23            17.7357070984       -9.0281108689       14.6027919148  MEMB      23              0.0000000000
      2360        23  SAPE      H3R            18.8148530883       -9.2978754781       14.5498584591  MEMB      23              0.0000000000
      2361        23  SAPE      H3S            17.5429697013       -8.4728832116       13.6434295155  MEMB      23              0.0000000000
      2362        23  SAPE      C24            16.8144758669      -10.2191517476       14.6020977807  MEMB      23              0.0000000000
      2363        23  SAPE      H4R            16.8309520518      -10.7371389546       15.5786870824  MEMB      23              0.0000000000
      2364        23  SAPE      H4S            17.2765768007      -10.9074402008       13.8542593525  MEMB      23              0.0000000000
      2365        23  SAPE      C25            15.4137465256       -9.7731306849       14.2562652020  MEMB      23              0.0000000000
      2366        23  SAPE      H5R            14.8836392938       -9.2191308986       15.0445569939  MEMB      23              0.0000000000
      2367        23  SAPE      C26            14.8473912994       -9.9056614943       13.0443972381  MEMB      23              0.0000000000
      2368        23  SAPE      H6R            13.8124552312       -9.5691549212       12.8734491014  MEMB      23              0.0000000000
      2369        23  SAPE      C27            15.5491973560      -10.5216861195       11.8656942498  MEMB      23              0.0000000000
      2370        23  SAPE      H7R            15.6398211350      -11.6013170266       12.0665418634  MEMB      23              0.0000000000
      2371        23  SAPE      H7S            16.5839448487      -10.1130612073       11.8138749820  MEMB      23              0.0000000000
      2372        23  SAPE      C28            14.8340449031      -10.4573429753       10.5463530946  MEMB      23              0.0000000000
      2373        23  SAPE      H8R            13.7615819702      -10.6949601322       10.6015568548  MEMB      23              0.0000000000
      2374        23  SAPE      C29            15.3742292612      -10.1350114229        9.3544511865  MEMB      23              0.0000000000
      2375        23  SAPE      H9R            14.7083126125       -9.8757550903        8.5081163120  MEMB      23              0.0000000000
      2376        23  SAPE      C210           16.8007633010       -9.7612161846        9.0988824766  MEMB      23              0.0000000000
      2377        23  SAPE      H10R           17.1332086634      -10.3292605300        8.2213208396  MEMB      23              0.0000000000
      2378        23  SAPE      H10S           17.4009817793      -10.0841761293        9.9698918434  MEMB      23              0.0000000000
      2379        23  SAPE      C211           17.0501826810       -8.2946043986        8.9130431431  MEMB      23              0.0000000000
      2380        23  SAPE      H11R           16.7846591178       -7.7984590256        9.8373261312  MEMB      23              0.0000000000
      2381        23  SAPE      C212           17.4971453570       -7.5886392487        7.8483712249  MEMB      23              0.0000000000
      2382        23  SAPE      H12R           17.7306424413       -6.5163717635        7.9702608662  MEMB      23              0.0000000000
      2383        23  SAPE      C213           17.8790568858       -8.1615705277        6.5048280736  MEMB      23              0.0000000000
      2384        23  SAPE      H13R           17.7813940996       -7.4110499996        5.6914969510  MEMB      23              0.0000000000
      2385        23  SAPE      H13S           17.1810254133       -8.9804664727        6.2354539005  MEMB      23              0.0000000000
      2386        23  SAPE      C214           19.2662695259       -8.7404045477        6.5565481075  MEMB      23              0.0000000000
      2387        23  SAPE      H14R           19.4733201319       -9.3439368005        7.4416244162  MEMB      23              0.0000000000
      2388        23  SAPE      C215           20.2732583527       -8.5765288052        5.7005032462  MEMB      23              0.0000000000
      2389        23  SAPE      H15R           21.2298126401       -9.0653664511        5.8774377283  MEMB      23              0.0000000000
      2390        23  SAPE      C216           20.2615012649       -7.7703030699        4.4794454965  MEMB      23              0.0000000000
      2391        23  SAPE      H16R           21.2580463641       -7.3381359216        4.1935333819  MEMB      23              0.0000000000
      2392        23  SAPE      H16S           19.4701863631       -6.9750861657        4.4491816815  MEMB      23              0.0000000000
      2393        23  SAPE      C217           19.9095387211       -8.5996439611        3.3686683111  MEMB      23              0.0000000000
      2394        23  SAPE      H17R           18.8712247681       -9.0358228040        3.4807723780  MEMB      23              0.0000000000
      2395        23  SAPE      H17S           20.5627612933       -9.4657350922        3.0731485446  MEMB      23              0.0000000000
      2396        23  SAPE      C218           20.1078243280       -7.3775111679        2.4504128490  MEMB      23              0.0000000000
      2397        23  SAPE      H18R           21.1588660328       -7.2174579049        2.0690684733  MEMB      23              0.0000000000
      2398        23  SAPE      H18S           19.3263211104       -6.5789996116        2.2890664565  MEMB      23              0.0000000000
      2399        23  SAPE      C219           19.6905963935       -7.9589872603        1.4339333341  MEMB      23              0.0000000000
      2400        23  SAPE      H19R           18.7299332674       -8.4921300657        1.7312429885  MEMB      23              0.0000000000
      2401        23  SAPE      H19S           20.5595666797       -8.7594117199        1.3096672492  MEMB      23              0.0000000000
      2402        23  SAPE      C220           19.3297964301       -7.0653351303        0.2680197086  MEMB      23              0.0000000000
      2403        23  SAPE      H20R           18.3764802963       -7.0960300998       -0.2755379814  MEMB      23              0.0000000000
      2404        23  SAPE      H20S           18.9636697153       -7.5958586887       -0.6469200458  MEMB      23              0.0000000000
      2405        23  SAPE      H20T           20.2312167565       -6.6354366661       -0.2989926643  MEMB      23              0.0000000000
      2406        23  SAPE      C33            18.2514361980      -14.4612607129       15.6284223865  MEMB      23              0.0000000000
      2407        23  SAPE      H3X            17.8703356172      -15.4408368979       15.9406713081  MEMB      23              0.0000000000
      2408        23  SAPE      H3Y            19.3271404250      -14.3006180005       15.5744638778  MEMB      23              0.0000000000
      2409        23  SAPE      C34            18.0186472835      -14.2226811883       14.1594951875  MEMB      23              0.0000000000
      2410        23  SAPE      H4X            18.5582708914      -13.2835320768       13.9073320969  MEMB      23              0.0000000000
      2411        23  SAPE      H4Y            16.9293068903      -14.2030440162       14.2226033197  MEMB      23              0.0000000000
      2412        23  SAPE      C35            18.3373670644      -15.2934373499       13.1020727681  MEMB      23              0.0000000000
      2413        23  SAPE      H5X            17.8396156142      -16.2557147859       13.3355234634  MEMB      23              0.0000000000
      2414        23  SAPE      H5Y            19.3953527820      -15.5434999670       12.8088519245  MEMB      23              0.0000000000
      2415        23  SAPE      C36            17.9857356491      -14.8410041778       11.8090751196  MEMB      23              0.0000000000
      2416        23  SAPE      H6X            16.9760684340      -14.4146199850       11.7997813572  MEMB      23              0.0000000000
      2417        23  SAPE      H6Y            18.0815029237      -15.8015888301       11.2149465148  MEMB      23              0.0000000000
      2418        23  SAPE      C37            18.9676610517      -13.8334149345       11.3516444869  MEMB      23              0.0000000000
      2419        23  SAPE      H7X            20.0319203974      -14.0192862328       11.6557590820  MEMB      23              0.0000000000
      2420        23  SAPE      H7Y            18.7794427659      -12.7527809183       11.5370408699  MEMB      23              0.0000000000
      2421        23  SAPE      C38            18.6397188925      -14.2179928405        9.9661266065  MEMB      23              0.0000000000
      2422        23  SAPE      H8X            19.0807634236      -15.1829980083        9.6344302070  MEMB      23              0.0000000000
      2423        23  SAPE      H8Y            19.2038399473      -13.5705742200        9.5114864068  MEMB      23              0.0000000000
      2424        23  SAPE      C39            17.6776948883      -13.3653528607        9.1694338531  MEMB      23              0.0000000000
      2425        23  SAPE      H9X            17.9601384540      -12.2697030158        9.1039301516  MEMB      23              0.0000000000
      2426        23  SAPE      H9Y            16.7879134590      -13.5348843058        9.7571120813  MEMB      23              0.0000000000
      2427        23  SAPE      C310           17.5637205558      -13.8489620156        7.7609596396  MEMB      23              0.0000000000
      2428        23  SAPE      H10X           17.7471468282      -14.9596748492        7.7582847435  MEMB      23              0.0000000000
      2429        23  SAPE      H10Y           18.2813899152      -13.2759346072        7.1490103566  MEMB      23              0.0000000000
      2430        23  SAPE      C311           16.2663398932      -13.5629599835        7.1594544570  MEMB      23              0.0000000000
      2431        23  SAPE      H11X           15.8786848133      -12.6541318945        7.6558487838  MEMB      23              0.0000000000
      2432        23  SAPE      H11Y           15.7860674215      -14.5033973682        7.4592189136  MEMB      23              0.0000000000
      2433        23  SAPE      C312           16.1869589349      -13.4627699082        5.6623059525  MEMB      23              0.0000000000
      2434        23  SAPE      H12X           16.3379067441      -14.4831925571        5.2331330783  MEMB      23              0.0000000000
      2435        23  SAPE      H12Y           16.8714889471      -12.7303578540        5.2411321165  MEMB      23              0.0000000000
      2436        23  SAPE      C313           14.8663550741      -12.9060548158        5.2205339109  MEMB      23              0.0000000000
      2437        23  SAPE      H13X           14.1281164081      -13.5102204910        5.7442045262  MEMB      23              0.0000000000
      2438        23  SAPE      H13Y           14.8281670895      -13.0574645398        4.1225382595  MEMB      23              0.0000000000
      2439        23  SAPE      C314           14.4741297043      -11.4904187809        5.6182336708  MEMB      23              0.0000000000
      2440        23  SAPE      H14X           15.0432567314      -11.1877911138        6.5138565469  MEMB      23              0.0000000000
      2441        23  SAPE      H14Y           13.3949810544      -11.5087122628        5.9119809060  MEMB      23              0.0000000000
      2442        23  SAPE      C315           14.6257517369      -10.4767485547        4.4892921285  MEMB      23              0.0000000000
      2443        23  SAPE      H15X           14.3633017963       -9.4774041971        4.8964817068  MEMB      23              0.0000000000
      2444        23  SAPE      H15Y           13.8835705516      -10.7009875005        3.6888648223  MEMB      23              0.0000000000
      2445        23  SAPE      C316           16.0000880408      -10.4552881486        3.8268710122  MEMB      23              0.0000000000
      2446        23  SAPE      H16X           16.3649566447      -11.4800020696        3.5965843572  MEMB      23              0.0000000000
      2447        23  SAPE      H16Y           16.7763848771      -10.0123817283        4.4893604675  MEMB      23              0.0000000000
      2448        23  SAPE      C317           15.9445252919       -9.7245901977        2.4802235483  MEMB      23              0.0000000000
      2449        23  SAPE      H17X           15.4868448530      -10.4045787159        1.7217061507  MEMB      23              0.0000000000
      2450        23  SAPE      H17Y           17.0145366127       -9.6448954752        2.2328040743  MEMB      23              0.0000000000
      2451        23  SAPE      C318           15.3123142904       -8.3178248533        2.5137950963  MEMB      23              0.0000000000
      2452        23  SAPE      H18X           15.6088383297       -7.8282028528        3.4653184101  MEMB      23              0.0000000000
      2453        23  SAPE      H18Y           14.2034371779       -8.3641003998        2.4993088511  MEMB      23              0.0000000000
      2454        23  SAPE      H18Z           15.6340531572       -7.6415938481        1.6904554018  MEMB      23              0.0000000000
      2455        24  SAPS      N              10.2041688788       16.2316187946       20.0392596890  MEMB      24              0.0000000000
      2456        24  SAPS      HN1            10.2365475505       16.7084911948       20.9735368411  MEMB      24              0.0000000000
      2457        24  SAPS      HN2            10.3852856711       15.2159259090       20.1311618098  MEMB      24              0.0000000000
      2458        24  SAPS      HN3            10.8200411012       16.7219105388       19.3668501392  MEMB      24              0.0000000000
      2459        24  SAPS      C12             8.7523731015       16.3654086989       19.6308912496  MEMB      24              0.0000000000
      2460        24  SAPS      H12A            8.6559964502       16.8031771690       18.6517634629  MEMB      24              0.0000000000
      2461        24  SAPS      C13             7.9868848448       15.0786605756       19.6131784604  MEMB      24              0.0000000000
      2462        24  SAPS      O13A            8.6392670789       14.0362656317       19.8726185638  MEMB      24              0.0000000000
      2463        24  SAPS      O13B            6.7425169944       15.1631298391       19.4693235225  MEMB      24              0.0000000000
      2464        24  SAPS      C11             8.0114290932       17.1950803384       20.6565781010  MEMB      24              0.0000000000
      2465        24  SAPS      H11A            7.9132231669       16.6792000102       21.6312162408  MEMB      24              0.0000000000
      2466        24  SAPS      H11B            6.9774949005       17.4514474020       20.3030718288  MEMB      24              0.0000000000
      2467        24  SAPS      P               8.4364821924       19.5935714658       20.1259790173  MEMB      24              0.0000000000
      2468        24  SAPS      O13             7.0946740955       20.0958581407       20.5226158837  MEMB      24              0.0000000000
      2469        24  SAPS      O14             9.6182487839       20.3358631194       20.5708903792  MEMB      24              0.0000000000
      2470        24  SAPS      O12             8.8020039965       18.3024866832       20.8570896671  MEMB      24              0.0000000000
      2471        24  SAPS      O11             8.5736295276       19.5887978221       18.5662181198  MEMB      24              0.0000000000
      2472        24  SAPS      C1              7.8988287343       20.5200351663       17.6884086912  MEMB      24              0.0000000000
      2473        24  SAPS      HA              7.6874849552       21.5523716884       18.0573634323  MEMB      24              0.0000000000
      2474        24  SAPS      HB              8.5688239570       20.6833857499       16.8139407599  MEMB      24              0.0000000000
      2475        24  SAPS      C2              6.5707257889       19.9500459342       17.1586634633  MEMB      24              0.0000000000
      2476        24  SAPS      HS              5.7423242718       20.1861188552       17.8826619059  MEMB      24              0.0000000000
      2477        24  SAPS      O21             6.7759500593       18.5302741278       16.9674678599  MEMB      24              0.0000000000
      2478        24  SAPS      C21             5.7457015230       17.7179327447       16.9145672639  MEMB      24              0.0000000000
      2479        24  SAPS      O22             4.6195488778       17.9953019450       17.2816010086  MEMB      24              0.0000000000
      2480        24  SAPS      C22             6.1696739973       16.3938834466       16.2429507986  MEMB      24              0.0000000000
      2481        24  SAPS      H2R             6.7650384544       15.8259133442       16.9772346307  MEMB      24              0.0000000000
      2482        24  SAPS      H2S             5.3013347325       15.7631174735       16.0181419499  MEMB      24              0.0000000000
      2483        24  SAPS      C3              6.2988658499       20.6653329595       15.7996727916  MEMB      24              0.0000000000
      2484        24  SAPS      HX              6.1186350228       21.7507182585       15.9618036820  MEMB      24              0.0000000000
      2485        24  SAPS      HY              5.3331233063       20.2633227653       15.5150104242  MEMB      24              0.0000000000
      2486        24  SAPS      O31             7.4126901157       20.4091277544       14.8833153485  MEMB      24              0.0000000000
      2487        24  SAPS      C31             7.3566999445       20.3322295897       13.5599434623  MEMB      24              0.0000000000
      2488        24  SAPS      O32             6.5137070210       20.6290334535       12.8036009152  MEMB      24              0.0000000000
      2489        24  SAPS      C32             8.5319233457       20.0431016389       12.7950545462  MEMB      24              0.0000000000
      2490        24  SAPS      H2X             9.0262487376       19.1247230564       13.1459220269  MEMB      24              0.0000000000
      2491        24  SAPS      H2Y             9.0652744142       21.0153104895       12.9316761535  MEMB      24              0.0000000000
      2492        24  SAPS      C23             7.0705638901       16.5741446355       15.0093836874  MEMB      24              0.0000000000
      2493        24  SAPS      H3R             7.9408394148       17.1960366263       15.3303241838  MEMB      24              0.0000000000
      2494        24  SAPS      H3S             6.5144936395       17.1103653578       14.2050108669  MEMB      24              0.0000000000
      2495        24  SAPS      C24             7.6411685544       15.2366387049       14.5138904611  MEMB      24              0.0000000000
      2496        24  SAPS      H4R             6.8071847748       14.5448380118       14.2632100858  MEMB      24              0.0000000000
      2497        24  SAPS      H4S             8.2347875066       14.7522973452       15.3234059496  MEMB      24              0.0000000000
      2498        24  SAPS      C25             8.4789599008       15.5752335330       13.3119251672  MEMB      24              0.0000000000
      2499        24  SAPS      H5R             9.5637320429       15.6187515249       13.4853398270  MEMB      24              0.0000000000
      2500        24  SAPS      C26             7.9625061358       15.8346000160       12.0965189174  MEMB      24              0.0000000000
      2501        24  SAPS      H6R             8.6174056679       16.1722675666       11.2781480027  MEMB      24              0.0000000000
      2502        24  SAPS      C27             6.4875048295       15.8079028393       11.7939811890  MEMB      24              0.0000000000
      2503        24  SAPS      H7R             6.0626089895       16.8310634703       11.7862221656  MEMB      24              0.0000000000
      2504        24  SAPS      H7S             5.9515163019       15.3191328957       12.6206627611  MEMB      24              0.0000000000
      2505        24  SAPS      C28             6.2118398194       15.0255424937       10.5396468135  MEMB      24              0.0000000000
      2506        24  SAPS      H8R             5.9248041737       13.9816727276       10.7116564661  MEMB      24              0.0000000000
      2507        24  SAPS      C29             6.1758664932       15.4641615720        9.2792101120  MEMB      24              0.0000000000
      2508        24  SAPS      H9R             6.0451128948       14.7577676828        8.4442036876  MEMB      24              0.0000000000
      2509        24  SAPS      C210            6.4080088433       16.8643090992        8.8490247066  MEMB      24              0.0000000000
      2510        24  SAPS      H10R            7.0705462892       16.8549412172        7.9750885641  MEMB      24              0.0000000000
      2511        24  SAPS      H10S            6.7516223846       17.5527719507        9.6424567939  MEMB      24              0.0000000000
      2512        24  SAPS      C211            5.1115632812       17.3450209695        8.4254985172  MEMB      24              0.0000000000
      2513        24  SAPS      H11R            4.2495305277       16.8167715567        8.8536204829  MEMB      24              0.0000000000
      2514        24  SAPS      C212            4.9013191909       18.4712338423        7.7850369470  MEMB      24              0.0000000000
      2515        24  SAPS      H12R            3.8678269890       18.7115768809        7.5645765512  MEMB      24              0.0000000000
      2516        24  SAPS      C213            5.9309866514       19.4393623318        7.3862401714  MEMB      24              0.0000000000
      2517        24  SAPS      H13R            6.4562349348       19.8835705522        8.2583200023  MEMB      24              0.0000000000
      2518        24  SAPS      H13S            5.4152184000       20.2293730673        6.9318885173  MEMB      24              0.0000000000
      2519        24  SAPS      C214            6.7636572623       19.1891951269        6.2299768910  MEMB      24              0.0000000000
      2520        24  SAPS      H14R            7.7257902075       18.8639068784        6.5218288352  MEMB      24              0.0000000000
      2521        24  SAPS      C215            6.4903159318       19.4653606729        4.9622858685  MEMB      24              0.0000000000
      2522        24  SAPS      H15R            7.0740797693       18.9908796868        4.1843486481  MEMB      24              0.0000000000
      2523        24  SAPS      C216            5.2305487654       20.0846954761        4.5175422970  MEMB      24              0.0000000000
      2524        24  SAPS      H16R            5.2438197537       20.8887598960        3.7775853215  MEMB      24              0.0000000000
      2525        24  SAPS      H16S            4.5607733530       20.4860534531        5.3403754121  MEMB      24              0.0000000000
      2526        24  SAPS      C217            4.7308436671       18.8144224243        3.9364272915  MEMB      24              0.0000000000
      2527        24  SAPS      H17R            3.8134097572       19.1219019229        4.5628813155  MEMB      24              0.0000000000
      2528        24  SAPS      H17S            4.7749101844       17.8124946139        4.3129707483  MEMB      24              0.0000000000
      2529        24  SAPS      C218            4.9727952256       18.2997311557        2.4116811719  MEMB      24              0.0000000000
      2530        24  SAPS      H18R            4.2163617384       17.6532193560        1.8397460195  MEMB      24              0.0000000000
      2531        24  SAPS      H18S            5.6614262445       17.4716809184        2.5648927343  MEMB      24              0.0000000000
      2532        24  SAPS      C219            5.0768171633       19.3483141831        1.3018259502  MEMB      24              0.0000000000
      2533        24  SAPS      H19R            5.4074774785       20.2867840929        1.7723228449  MEMB      24              0.0000000000
      2534        24  SAPS      H19S            4.1764342062       19.5833790747        0.6817373183  MEMB      24              0.0000000000
      2535        24  SAPS      C220            5.8497608884       18.9038162069        0.1195852880  MEMB      24              0.0000000000
      2536        24  SAPS      H20R            6.8221491728       18.5668054446        0.4860410166  MEMB      24              0.0000000000
      2537        24  SAPS      H20S            5.9627158417       19.8025776817       -0.5034610767  MEMB      24              0.0000000000
      2538        24  SAPS      H20T            5.2755331810       18.1111277715       -0.4255854799  MEMB      24              0.0000000000
      2539        24  SAPS      C33             8.2239411438       19.9422693600       11.2724082245  MEMB      24              0.0000000000
      2540        24  SAPS      H3X             7.6064313270       20.7916642081       10.8791184598  MEMB      24              0.0000000000
      2541        24  SAPS      H3Y             7.6604394972       19.0186770950       11.0070964274  MEMB      24              0.0000000000
      2542        24  SAPS      C34             9.5406086780       20.0190668450       10.5522922247  MEMB      24              0.0000000000
      2543        24  SAPS      H4X            10.3330883916       19.4155681745       11.0539226036  MEMB      24              0.0000000000
      2544        24  SAPS      H4Y             9.8552121892       21.0833731906       10.5297159305  MEMB      24              0.0000000000
      2545        24  SAPS      C35             9.4279916427       19.5461204784        9.1537178633  MEMB      24              0.0000000000
      2546        24  SAPS      H5X             8.8356009951       20.2288052034        8.4978730341  MEMB      24              0.0000000000
      2547        24  SAPS      H5Y             9.0543298224       18.5023143423        9.0774411509  MEMB      24              0.0000000000
      2548        24  SAPS      C36            10.7501920019       19.5221848106        8.5461217671  MEMB      24              0.0000000000
      2549        24  SAPS      H6X            11.5321245423       18.9204777232        9.0840771207  MEMB      24              0.0000000000
      2550        24  SAPS      H6Y            11.1531112326       20.5652698174        8.5922270476  MEMB      24              0.0000000000
      2551        24  SAPS      C37            10.3631050772       18.9887645273        7.1503307995  MEMB      24              0.0000000000
      2552        24  SAPS      H7X            11.3423176324       18.6403006067        7.2275554093  MEMB      24              0.0000000000
      2553        24  SAPS      H7Y            10.2370658486       19.7107417491        6.3206842588  MEMB      24              0.0000000000
      2554        24  SAPS      C38            10.0702059127       17.5347705812        6.7782316021  MEMB      24              0.0000000000
      2555        24  SAPS      H8X             8.9930374635       17.5226179329        6.9579728878  MEMB      24              0.0000000000
      2556        24  SAPS      H8Y            10.6274120148       16.8677319114        7.4808980614  MEMB      24              0.0000000000
      2557        24  SAPS      C39            10.4508399202       17.0055042299        5.3685954141  MEMB      24              0.0000000000
      2558        24  SAPS      H9X            11.5385758628       17.0501726926        5.1404194562  MEMB      24              0.0000000000
      2559        24  SAPS      H9Y             9.9098666684       17.5330318065        4.5497473750  MEMB      24              0.0000000000
      2560        24  SAPS      C310           10.1369830689       15.5191118295        5.2664913232  MEMB      24              0.0000000000
      2561        24  SAPS      H10X           10.7374605625       14.9282804564        6.0017542960  MEMB      24              0.0000000000
      2562        24  SAPS      H10Y           10.4556921755       15.1989056478        4.2459388497  MEMB      24              0.0000000000
      2563        24  SAPS      C311            8.6412655432       15.2879954510        5.5042438843  MEMB      24              0.0000000000
      2564        24  SAPS      H11X            8.0935370349       16.2218851802        5.6920093274  MEMB      24              0.0000000000
      2565        24  SAPS      H11Y            8.4912455007       14.5780148996        6.3457306627  MEMB      24              0.0000000000
      2566        24  SAPS      C312            7.9514939619       14.7206767683        4.2943703679  MEMB      24              0.0000000000
      2567        24  SAPS      H12X            6.9698610162       14.2894978829        4.5831481143  MEMB      24              0.0000000000
      2568        24  SAPS      H12Y            8.7068250480       13.9566789937        4.1947614662  MEMB      24              0.0000000000
      2569        24  SAPS      C313            7.8979696788       15.6972550146        3.1194031365  MEMB      24              0.0000000000
      2570        24  SAPS      H13X            8.9100899876       15.9468650126        2.7453597925  MEMB      24              0.0000000000
      2571        24  SAPS      H13Y            7.3660627887       16.5683588794        3.5158809044  MEMB      24              0.0000000000
      2572        24  SAPS      C314            7.0910970919       15.3667592362        1.9067218048  MEMB      24              0.0000000000
      2573        24  SAPS      H14X            6.7661732716       16.1997287293        1.2714584233  MEMB      24              0.0000000000
      2574        24  SAPS      H14Y            6.1242212085       14.9231525781        2.2720658185  MEMB      24              0.0000000000
      2575        24  SAPS      C315            7.8919660093       14.4924855062        0.9896720058  MEMB      24              0.0000000000
      2576        24  SAPS      H15X            7.2999113198       14.1564349677        0.1518665238  MEMB      24              0.0000000000
      2577        24  SAPS      H15Y            8.0618687421       13.8037251097        1.8154142542  MEMB      24              0.0000000000
      2578        24  SAPS      C316            9.2155218718       14.1500139417        0.4707975382  MEMB      24              0.0000000000
      2579        24  SAPS      H16X            9.2758903310       13.0429322969        0.1812345240  MEMB      24              0.0000000000
      2580        24  SAPS      H16Y            9.9860173617       14.4904818016        1.1321961570  MEMB      24              0.0000000000
      2581        24  SAPS      C317            9.1788771767       14.7346806313       -0.8320420157  MEMB      24              0.0000000000
      2582        24  SAPS      H17X            8.3485414217       14.1940350839       -1.3404624094  MEMB      24              0.0000000000
      2583        24  SAPS      H17Y            9.9765460685       14.2243842150       -1.3018518293  MEMB      24              0.0000000000
      2584        24  SAPS      C318            9.1178776326       16.2684775448       -0.8008203922  MEMB      24              0.0000000000
      2585        24  SAPS      H18X            8.1970594310       16.5975102253       -0.2831306880  MEMB      24              0.0000000000
      2586        24  SAPS      H18Y            9.0630966779       16.7104083830       -1.8278911241  MEMB      24              0.0000000000
      2587        24  SAPS      H18Z            9.4840508170       16.8427036748        0.0105190110  MEMB      24              0.0000000000
      2588        25  SAPS      N              12.8491532188       14.1693598686       20.0822195398  MEMB      25              0.0000000000
      2589        25  SAPS      HN1            12.9719898025       14.3602553314       19.0668187472  MEMB      25              0.0000000000
      2590        25  SAPS      HN2            12.0547726054       13.5056777760       20.1883803423  MEMB      25              0.0000000000
      2591        25  SAPS      HN3            12.6741217658       15.0560219798       20.5727877239  MEMB      25              0.0000000000
      2592        25  SAPS      C12            14.1331826354       13.5506208059       20.6663917279  MEMB      25              0.0000000000
      2593        25  SAPS      H12A           14.2659482278       13.8180731420       21.6937440608  MEMB      25              0.0000000000
      2594        25  SAPS      C13            14.2148326965       12.0353024412       20.6253631580  MEMB      25              0.0000000000
      2595        25  SAPS      O13A           13.4603844035       11.5531555536       19.7685740915  MEMB      25              0.0000000000
      2596        25  SAPS      O13B           14.9474865592       11.3410734026       21.3726102213  MEMB      25              0.0000000000
      2597        25  SAPS      C11            15.2771818021       14.0507223619       19.7764650830  MEMB      25              0.0000000000
      2598        25  SAPS      H11A           15.1627779921       15.1262620417       19.6796554818  MEMB      25              0.0000000000
      2599        25  SAPS      H11B           15.1770170998       13.6399366934       18.7443566745  MEMB      25              0.0000000000
      2600        25  SAPS      P              17.8470811799       14.2248904305       19.5527711383  MEMB      25              0.0000000000
      2601        25  SAPS      O13            17.3760795687       15.0177193230       18.3889501964  MEMB      25              0.0000000000
      2602        25  SAPS      O14            18.7615172479       14.6212214414       20.6049485246  MEMB      25              0.0000000000
      2603        25  SAPS      O12            16.5523518567       13.7712415826       20.3334228145  MEMB      25              0.0000000000
      2604        25  SAPS      O11            18.5326199355       12.9592092645       19.0976163418  MEMB      25              0.0000000000
      2605        25  SAPS      C1             17.6199126581       11.9982243036       18.8515226696  MEMB      25              0.0000000000
      2606        25  SAPS      HA             17.8455742387       11.0944657332       19.4787644635  MEMB      25              0.0000000000
      2607        25  SAPS      HB             16.5004295747       12.1479728778       18.8200489481  MEMB      25              0.0000000000
      2608        25  SAPS      C2             17.8874972446       11.8269708775       17.3791749095  MEMB      25              0.0000000000
      2609        25  SAPS      HS             18.9678937234       11.5316709830       17.4952429688  MEMB      25              0.0000000000
      2610        25  SAPS      O21            17.7610173537       12.8333783340       16.4551294063  MEMB      25              0.0000000000
      2611        25  SAPS      C21            17.8873424357       12.6478963457       15.1954289588  MEMB      25              0.0000000000
      2612        25  SAPS      O22            18.2189350986       11.7208149050       14.5187628978  MEMB      25              0.0000000000
      2613        25  SAPS      C22            17.6062829225       13.8903192703       14.5500657824  MEMB      25              0.0000000000
      2614        25  SAPS      H2R            16.8153356854       13.8189889940       13.8548091844  MEMB      25              0.0000000000
      2615        25  SAPS      H2S            17.6993354679       14.7023765444       15.3010827738  MEMB      25              0.0000000000
      2616        25  SAPS      C3             16.9028745924       10.8739391805       16.9852229531  MEMB      25              0.0000000000
      2617        25  SAPS      HX             16.9332917540       10.4869688485       17.9430683647  MEMB      25              0.0000000000
      2618        25  SAPS      HY             17.1646767839       10.0074219810       16.5981729606  MEMB      25              0.0000000000
      2619        25  SAPS      O31            15.6146355307       11.1491361639       16.6565499783  MEMB      25              0.0000000000
      2620        25  SAPS      C31            15.1982372465       10.2712006090       15.8091147113  MEMB      25              0.0000000000
      2621        25  SAPS      O32            15.5943748034        9.1344638506       15.5714776872  MEMB      25              0.0000000000
      2622        25  SAPS      C32            13.8395171273       10.8454947303       15.5996789368  MEMB      25              0.0000000000
      2623        25  SAPS      H2X            13.5879267315       11.6120772097       16.2832651003  MEMB      25              0.0000000000
      2624        25  SAPS      H2Y            12.9521404478       10.4341705389       16.1442502437  MEMB      25              0.0000000000
      2625        25  SAPS      C23            18.5221505608       14.0621856661       13.4232354929  MEMB      25              0.0000000000
      2626        25  SAPS      H3R            19.2218918947       14.1762876721       14.2670660308  MEMB      25              0.0000000000
      2627        25  SAPS      H3S            18.8332518848       15.0647569101       13.1052307319  MEMB      25              0.0000000000
      2628        25  SAPS      C24            18.6442505273       12.8832655749       12.3419746185  MEMB      25              0.0000000000
      2629        25  SAPS      H4R            19.3152340968       11.9665282615       12.3356517579  MEMB      25              0.0000000000
      2630        25  SAPS      H4S            19.4559916950       13.2429361762       11.8760082306  MEMB      25              0.0000000000
      2631        25  SAPS      C25            18.0354766448       12.9728810251       11.1312154748  MEMB      25              0.0000000000
      2632        25  SAPS      H5R            17.8499297136       13.9874560701       10.8253789974  MEMB      25              0.0000000000
      2633        25  SAPS      C26            17.8607441252       11.8688635230       10.5009826021  MEMB      25              0.0000000000
      2634        25  SAPS      H6R            16.9864957855       12.0162413382        9.9089784098  MEMB      25              0.0000000000
      2635        25  SAPS      C27            18.2371097842       10.4611497432       10.9887800408  MEMB      25              0.0000000000
      2636        25  SAPS      H7R            18.8915364030       10.2199226556       11.8554107282  MEMB      25              0.0000000000
      2637        25  SAPS      H7S            18.5164825360        9.8197870890       10.2615206917  MEMB      25              0.0000000000
      2638        25  SAPS      C28            17.0107031079        9.9090150717       11.4293234304  MEMB      25              0.0000000000
      2639        25  SAPS      H8R            16.9896823736       10.1944509432       12.5026948036  MEMB      25              0.0000000000
      2640        25  SAPS      C29            15.9963440985        9.7430940742       10.5857070474  MEMB      25              0.0000000000
      2641        25  SAPS      H9R            15.7059709437       10.7545671292       10.5527760393  MEMB      25              0.0000000000
      2642        25  SAPS      C210           15.9871029322       10.0496849664        9.1003669948  MEMB      25              0.0000000000
      2643        25  SAPS      H10R           16.0838683865       11.0441604326        8.6691078123  MEMB      25              0.0000000000
      2644        25  SAPS      H10S           15.0732980455        9.8531299854        8.6097637554  MEMB      25              0.0000000000
      2645        25  SAPS      C211           16.6423935736        9.0898661655        8.4074581717  MEMB      25              0.0000000000
      2646        25  SAPS      H11R           16.7041782484        8.1468098243        8.9418895383  MEMB      25              0.0000000000
      2647        25  SAPS      C212           16.4487290941        8.8327348985        7.1823830406  MEMB      25              0.0000000000
      2648        25  SAPS      H12R           16.9597093861        7.8624688315        7.0077826224  MEMB      25              0.0000000000
      2649        25  SAPS      C213           15.6329131749        9.3014938231        6.0248502263  MEMB      25              0.0000000000
      2650        25  SAPS      H13R           14.6089723239        9.2532440323        6.2417217905  MEMB      25              0.0000000000
      2651        25  SAPS      H13S           15.7811693493        8.6282327883        5.1703238396  MEMB      25              0.0000000000
      2652        25  SAPS      C214           15.9089111226       10.6294094478        5.5377348120  MEMB      25              0.0000000000
      2653        25  SAPS      H14R           16.5721311232       11.0769551940        6.3157923735  MEMB      25              0.0000000000
      2654        25  SAPS      C215           16.0596274080       10.8500053167        4.2018489148  MEMB      25              0.0000000000
      2655        25  SAPS      H15R           17.0176508924       11.4453622617        4.1273374780  MEMB      25              0.0000000000
      2656        25  SAPS      C216           15.9694246133        9.6651524282        3.0839663435  MEMB      25              0.0000000000
      2657        25  SAPS      H16R           16.2671235021       10.0881878311        2.1165417172  MEMB      25              0.0000000000
      2658        25  SAPS      H16S           15.3508246670        8.7753357318        3.3114378303  MEMB      25              0.0000000000
      2659        25  SAPS      C217           16.9361578204        8.3485570912        2.7056685128  MEMB      25              0.0000000000
      2660        25  SAPS      H17R           16.9153008229        7.4543776408        2.1086331739  MEMB      25              0.0000000000
      2661        25  SAPS      H17S           16.9489061771        7.7901243083        3.6820585568  MEMB      25              0.0000000000
      2662        25  SAPS      C218           18.3107154267        8.7591590722        2.0577133813  MEMB      25              0.0000000000
      2663        25  SAPS      H18R           17.9836309046        9.9637435810        2.3746731620  MEMB      25              0.0000000000
      2664        25  SAPS      H18S           18.2578585030        9.6410672578        1.4134931594  MEMB      25              0.0000000000
      2665        25  SAPS      C219           19.9388262885        7.4811342783        2.5063131680  MEMB      25              0.0000000000
      2666        25  SAPS      H19R           20.0349530924        8.3628429003        2.0993843201  MEMB      25              0.0000000000
      2667        25  SAPS      H19S           19.8414498335        6.5895385886        2.0040765282  MEMB      25              0.0000000000
      2668        25  SAPS      C220           21.8962697172        6.7738637520        3.0254384588  MEMB      25              0.0000000000
      2669        25  SAPS      H20R           21.3925135407        6.1000485157        3.1582452580  MEMB      25              0.0000000000
      2670        25  SAPS      H20S           22.4105941891        7.4346956083        3.9249608883  MEMB      25              0.0000000000
      2671        25  SAPS      H20T           22.9867498767        6.9233404439        3.3590802129  MEMB      25              0.0000000000
      2672        25  SAPS      C33            13.8847461561       11.1415873590       14.1054939299  MEMB      25              0.0000000000
      2673        25  SAPS      H3X            13.0227167951       11.3308579741       13.5809145393  MEMB      25              0.0000000000
      2674        25  SAPS      H3Y            13.4825508783       10.3503380457       14.5285564632  MEMB      25              0.0000000000
      2675        25  SAPS      C34            14.9630354413       11.9558931678       13.8494491603  MEMB      25              0.0000000000
      2676        25  SAPS      H4X            15.8163216222       11.2440959641       13.8067603642  MEMB      25              0.0000000000
      2677        25  SAPS      H4Y            14.7487120063       12.4960204440       14.8163690323  MEMB      25              0.0000000000
      2678        25  SAPS      C35            14.3382287017       12.7903683712       12.7357471328  MEMB      25              0.0000000000
      2679        25  SAPS      H5X            13.3630686156       13.0530434104       13.1603174657  MEMB      25              0.0000000000
      2680        25  SAPS      H5Y            15.1948169453       13.2941596813       13.3179743455  MEMB      25              0.0000000000
      2681        25  SAPS      C36            14.5679223180       14.0543433011       11.9516058533  MEMB      25              0.0000000000
      2682        25  SAPS      H6X            15.5399944837       13.6174482630       11.6079047169  MEMB      25              0.0000000000
      2683        25  SAPS      H6Y            14.3677128926       14.9005501012       12.7129239002  MEMB      25              0.0000000000
      2684        25  SAPS      C37            13.7521089940       14.6544990728       10.8009076095  MEMB      25              0.0000000000
      2685        25  SAPS      H7X            12.9150547651       14.4047462343       11.4456896483  MEMB      25              0.0000000000
      2686        25  SAPS      H7Y            13.2906027445       14.4256853695        9.8439208101  MEMB      25              0.0000000000
      2687        25  SAPS      C38            14.9118552462       15.4941321584       10.3897200609  MEMB      25              0.0000000000
      2688        25  SAPS      H8X            15.9220999323       14.9896069889       10.4019065686  MEMB      25              0.0000000000
      2689        25  SAPS      H8Y            14.9851118660       16.2625363850       11.1608649606  MEMB      25              0.0000000000
      2690        25  SAPS      C39            14.5402963550       16.1071183322        9.0693710509  MEMB      25              0.0000000000
      2691        25  SAPS      H9X            15.0820184326       17.0609004234        9.0953348024  MEMB      25              0.0000000000
      2692        25  SAPS      H9Y            13.4458300698       16.3249490678        9.0854778051  MEMB      25              0.0000000000
      2693        25  SAPS      C310           14.7500339371       15.2573105512        7.8158121529  MEMB      25              0.0000000000
      2694        25  SAPS      H10X           14.6756581361       15.9581768288        6.9552241069  MEMB      25              0.0000000000
      2695        25  SAPS      H10Y           13.9176241017       14.5253084366        7.7215407229  MEMB      25              0.0000000000
      2696        25  SAPS      C311           16.0593524539       14.5028117045        7.7592349915  MEMB      25              0.0000000000
      2697        25  SAPS      H11X           15.9530490966       13.8542121236        6.8498683197  MEMB      25              0.0000000000
      2698        25  SAPS      H11Y           16.1809856636       13.8066485369        8.6209145182  MEMB      25              0.0000000000
      2699        25  SAPS      C312           17.2221214258       15.5070706126        7.7845360961  MEMB      25              0.0000000000
      2700        25  SAPS      H12X           17.2390135171       16.1245019392        8.6977326252  MEMB      25              0.0000000000
      2701        25  SAPS      H12Y           17.2554148044       16.1214078777        6.8516015369  MEMB      25              0.0000000000
      2702        25  SAPS      C313           18.4936124092       14.8158362552        7.7173284584  MEMB      25              0.0000000000
      2703        25  SAPS      H13X           18.7890481621       14.2678036351        8.6501033007  MEMB      25              0.0000000000
      2704        25  SAPS      H13Y           19.3455264086       15.5265849033        7.5001978040  MEMB      25              0.0000000000
      2705        25  SAPS      C314           18.1786405624       13.8123099625        6.6076445386  MEMB      25              0.0000000000
      2706        25  SAPS      H14X           17.7871023124       12.7961536458        6.6448165886  MEMB      25              0.0000000000
      2707        25  SAPS      H14Y           18.8147033546       13.0893023568        7.0179246500  MEMB      25              0.0000000000
      2708        25  SAPS      C315           18.2405624929       14.2584813362        5.1409312880  MEMB      25              0.0000000000
      2709        25  SAPS      H15X           17.2680915482       14.7416737183        5.0287919104  MEMB      25              0.0000000000
      2710        25  SAPS      H15Y           18.3925123550       13.3703962631        4.4830759840  MEMB      25              0.0000000000
      2711        25  SAPS      C316           19.0162086465       15.4476294029        4.6457008970  MEMB      25              0.0000000000
      2712        25  SAPS      H16X           20.0297669666       15.4263398012        4.6750319929  MEMB      25              0.0000000000
      2713        25  SAPS      H16Y           19.3984581564       16.1349807313        5.4123714419  MEMB      25              0.0000000000
      2714        25  SAPS      C317           19.1572103222       15.5365470424        3.0911288758  MEMB      25              0.0000000000
      2715        25  SAPS      H17X           19.9230686678       16.3479398117        3.0977556061  MEMB      25              0.0000000000
      2716        25  SAPS      H17Y           18.1055742811       15.7706782719        2.9818694027  MEMB      25              0.0000000000
      2717        25  SAPS      C318           19.4425072771       14.5507690534        1.8743330719  MEMB      25              0.0000000000
      2718        25  SAPS      H18X           20.4209445275       14.0478662603        1.7619024884  MEMB      25              0.0000000000
      2719        25  SAPS      H18Y           19.3772494055       15.1022666378        0.9077339694  MEMB      25              0.0000000000
      2720        25  SAPS      H18Z           18.8607336342       13.6373734363        1.9652989801  MEMB      25              0.0000000000
      2721        26  SAPS      N              -9.0307760499      -15.3687643591       20.2916166496  MEMB      26              0.0000000000
      2722        26  SAPS      HN1            -8.6826981019      -15.0380698321       21.2205139092  MEMB      26              0.0000000000
      2723        26  SAPS      HN2            -8.2976725675      -15.3389809877       19.5595390645  MEMB      26              0.0000000000
      2724        26  SAPS      HN3            -9.9167874412      -14.8845551802       20.0313815799  MEMB      26              0.0000000000
      2725        26  SAPS      C12            -9.4184077141      -16.7772224866       20.5244843791  MEMB      26              0.0000000000
      2726        26  SAPS      H12A           -8.5408154724      -17.4082337613       20.4979870995  MEMB      26              0.0000000000
      2727        26  SAPS      C13           -10.1156827134      -16.9583557094       21.8830542600  MEMB      26              0.0000000000
      2728        26  SAPS      O13A          -10.5599738579      -15.9330914923       22.4778097270  MEMB      26              0.0000000000
      2729        26  SAPS      O13B          -10.0338885205      -18.0975904463       22.4024261710  MEMB      26              0.0000000000
      2730        26  SAPS      C11           -10.3777579382      -17.1430682893       19.3789387887  MEMB      26              0.0000000000
      2731        26  SAPS      H11A           -9.8848913561      -16.8747737492       18.4157094945  MEMB      26              0.0000000000
      2732        26  SAPS      H11B          -11.3400912154      -16.5782630753       19.4695988024  MEMB      26              0.0000000000
      2733        26  SAPS      P             -11.8073576244      -19.2395791635       18.6592178440  MEMB      26              0.0000000000
      2734        26  SAPS      O13           -11.5479291072      -20.6941185456       18.7032912987  MEMB      26              0.0000000000
      2735        26  SAPS      O14           -13.0728607321      -18.6494278805       19.1646492085  MEMB      26              0.0000000000
      2736        26  SAPS      O12           -10.5959523078      -18.5388777691       19.3975768442  MEMB      26              0.0000000000
      2737        26  SAPS      O11           -11.4966111403      -18.6761120428       17.2281942859  MEMB      26              0.0000000000
      2738        26  SAPS      C1            -12.0018661758      -17.4178261783       16.7623812379  MEMB      26              0.0000000000
      2739        26  SAPS      HA            -12.4476341241      -16.7438277132       17.5117389751  MEMB      26              0.0000000000
      2740        26  SAPS      HB            -11.2898691755      -16.9650001935       16.0442911427  MEMB      26              0.0000000000
      2741        26  SAPS      C2            -13.1411572401      -17.6626627721       15.9351364934  MEMB      26              0.0000000000
      2742        26  SAPS      HS            -13.7980431436      -18.2454393016       16.7329455818  MEMB      26              0.0000000000
      2743        26  SAPS      O21           -12.3946921561      -18.3288693714       14.7918376998  MEMB      26              0.0000000000
      2744        26  SAPS      C21           -13.3833983102      -18.6840655122       14.1664768518  MEMB      26              0.0000000000
      2745        26  SAPS      O22           -14.3785292505      -18.8794664990       14.9311183247  MEMB      26              0.0000000000
      2746        26  SAPS      C22           -13.1185355725      -19.3026938905       12.3932365029  MEMB      26              0.0000000000
      2747        26  SAPS      H2R           -13.0273208838      -18.6278444183       11.6506756280  MEMB      26              0.0000000000
      2748        26  SAPS      H2S           -12.2499655810      -20.0163417311       12.6358895340  MEMB      26              0.0000000000
      2749        26  SAPS      C3            -13.9947588943      -16.4461790630       15.3685243945  MEMB      26              0.0000000000
      2750        26  SAPS      HX            -14.4531503979      -15.9917308095       16.2589875969  MEMB      26              0.0000000000
      2751        26  SAPS      HY            -14.9156579356      -16.5746244231       14.7934676265  MEMB      26              0.0000000000
      2752        26  SAPS      O31           -13.1659853080      -15.6805830012       14.4939798299  MEMB      26              0.0000000000
      2753        26  SAPS      C31           -13.2769923633      -15.7791391559       13.1494657469  MEMB      26              0.0000000000
      2754        26  SAPS      O32           -14.0292202853      -16.4747772044       12.4986840394  MEMB      26              0.0000000000
      2755        26  SAPS      C32           -12.2271297348      -14.8467528522       12.5608203194  MEMB      26              0.0000000000
      2756        26  SAPS      H2X           -12.1388422969      -13.9873950008       13.2653033898  MEMB      26              0.0000000000
      2757        26  SAPS      H2Y           -12.5577677573      -14.4011253337       11.5954655814  MEMB      26              0.0000000000
      2758        26  SAPS      C23           -14.4850217203      -20.0178167036       11.2567324418  MEMB      26              0.0000000000
      2759        26  SAPS      H3R           -15.4655358229      -19.5818275944       11.3823449557  MEMB      26              0.0000000000
      2760        26  SAPS      H3S           -15.1756855054      -20.8845093893       11.5942457540  MEMB      26              0.0000000000
      2761        26  SAPS      C24           -14.3904639897      -21.0496793455       10.0968778252  MEMB      26              0.0000000000
      2762        26  SAPS      H4R           -15.1848384205      -21.8586762619        9.9678474881  MEMB      26              0.0000000000
      2763        26  SAPS      H4S           -13.4338922400      -21.5232412020        9.9450701974  MEMB      26              0.0000000000
      2764        26  SAPS      C25           -14.3198926476      -20.1755196257        9.0352612505  MEMB      26              0.0000000000
      2765        26  SAPS      H5R           -15.2296984730      -20.2413263108        8.4634245393  MEMB      26              0.0000000000
      2766        26  SAPS      C26           -13.2209086221      -19.4689235123        8.8139457350  MEMB      26              0.0000000000
      2767        26  SAPS      H6R           -13.1972616788      -19.0353191384        7.8413840373  MEMB      26              0.0000000000
      2768        26  SAPS      C27           -11.8807550749      -19.4150202747        9.5441113356  MEMB      26              0.0000000000
      2769        26  SAPS      H7R           -11.7532007872      -18.9476846364       10.4795057066  MEMB      26              0.0000000000
      2770        26  SAPS      H7S           -11.2634545947      -18.7091322711        8.9407327284  MEMB      26              0.0000000000
      2771        26  SAPS      C28           -11.1204157338      -20.6153156199        9.7983277104  MEMB      26              0.0000000000
      2772        26  SAPS      H8R           -10.7775235283      -21.1406023980       10.7235237773  MEMB      26              0.0000000000
      2773        26  SAPS      C29           -10.5964450662      -20.8797620424        8.6946003978  MEMB      26              0.0000000000
      2774        26  SAPS      H9R            -9.7470720845      -21.3912193698        9.0205540917  MEMB      26              0.0000000000
      2775        26  SAPS      C210          -10.5737332068      -20.3071978100        7.2569879825  MEMB      26              0.0000000000
      2776        26  SAPS      H10R           -9.6225334168      -19.7990924437        7.1979533949  MEMB      26              0.0000000000
      2777        26  SAPS      H10S          -11.4805499621      -19.7976774111        7.0296696994  MEMB      26              0.0000000000
      2778        26  SAPS      C211          -10.8489150561      -20.8896622274        5.9200596710  MEMB      26              0.0000000000
      2779        26  SAPS      H11R          -11.5806431321      -21.6762169081        6.2131172672  MEMB      26              0.0000000000
      2780        26  SAPS      C212          -10.1330668007      -21.0827522140        4.7602576332  MEMB      26              0.0000000000
      2781        26  SAPS      H12R          -10.2901568879      -21.9415436402        4.1513111670  MEMB      26              0.0000000000
      2782        26  SAPS      C213           -8.8479102341      -20.8937723966        4.1513775351  MEMB      26              0.0000000000
      2783        26  SAPS      H13R           -7.8681171173      -21.5135202994        4.2700946797  MEMB      26              0.0000000000
      2784        26  SAPS      H13S           -8.7111010531      -20.0067791042        4.5925891625  MEMB      26              0.0000000000
      2785        26  SAPS      C214           -9.2005941502      -20.0573409093        3.0885138724  MEMB      26              0.0000000000
      2786        26  SAPS      H14R           -9.3033423502      -18.9644528807        3.3116137901  MEMB      26              0.0000000000
      2787        26  SAPS      C215           -8.8678824852      -20.5503728568        1.9694787920  MEMB      26              0.0000000000
      2788        26  SAPS      H15R           -9.0329595835      -19.8096234935        1.2162071015  MEMB      26              0.0000000000
      2789        26  SAPS      C216           -8.1451638071      -21.8896201087        1.8651131069  MEMB      26              0.0000000000
      2790        26  SAPS      H16R           -8.6503756790      -22.8097732977        1.8734767574  MEMB      26              0.0000000000
      2791        26  SAPS      H16S           -7.2609832201      -22.0055726289        2.5309722099  MEMB      26              0.0000000000
      2792        26  SAPS      C217           -7.5321706665      -22.3228249327        0.6742548080  MEMB      26              0.0000000000
      2793        26  SAPS      H17R           -6.9474843629      -23.2026663784        0.6832709475  MEMB      26              0.0000000000
      2794        26  SAPS      H17S           -6.3860504503      -22.1317609561        1.0524096890  MEMB      26              0.0000000000
      2795        26  SAPS      C218           -8.2787573032      -21.8001279957       -0.7410840175  MEMB      26              0.0000000000
      2796        26  SAPS      H18R           -7.8864936553      -21.6487505726       -1.7934741649  MEMB      26              0.0000000000
      2797        26  SAPS      H18S           -8.9803769008      -20.9349193601       -0.7319100550  MEMB      26              0.0000000000
      2798        26  SAPS      C219           -8.9953788732      -22.9132292891       -0.7535857320  MEMB      26              0.0000000000
      2799        26  SAPS      H19R           -9.3088167395      -22.9958636034        0.2117688710  MEMB      26              0.0000000000
      2800        26  SAPS      H19S           -8.3246177323      -23.7676232940       -0.9145991009  MEMB      26              0.0000000000
      2801        26  SAPS      C220          -10.2812832805      -22.6755983017       -1.2422030082  MEMB      26              0.0000000000
      2802        26  SAPS      H20R          -10.9699583248      -21.8767481427       -0.9516487552  MEMB      26              0.0000000000
      2803        26  SAPS      H20S          -10.8390635072      -23.5503231739       -1.0073503287  MEMB      26              0.0000000000
      2804        26  SAPS      H20T          -10.1428741728      -22.6710115211       -2.3037104359  MEMB      26              0.0000000000
      2805        26  SAPS      C33           -10.8834125447      -15.4822172796       12.4478616460  MEMB      26              0.0000000000
      2806        26  SAPS      H3X           -10.4200007188      -15.3785286062       13.4535823404  MEMB      26              0.0000000000
      2807        26  SAPS      H3Y           -10.3393012359      -14.8785797818       11.6970641987  MEMB      26              0.0000000000
      2808        26  SAPS      C34           -10.9295223337      -16.9430392735       12.0367564913  MEMB      26              0.0000000000
      2809        26  SAPS      H4X           -11.3347031415      -17.0228993350       11.0041334992  MEMB      26              0.0000000000
      2810        26  SAPS      H4Y           -11.6591300084      -17.4388681739       12.6956182891  MEMB      26              0.0000000000
      2811        26  SAPS      C35            -9.5785307760      -17.6328425843       12.2670519394  MEMB      26              0.0000000000
      2812        26  SAPS      H5X            -9.6393912066      -18.7297459204       12.1156543561  MEMB      26              0.0000000000
      2813        26  SAPS      H5Y            -9.3011699631      -17.4949010993       13.3345507535  MEMB      26              0.0000000000
      2814        26  SAPS      C36            -8.4629827418      -17.1310086773       11.3535933971  MEMB      26              0.0000000000
      2815        26  SAPS      H6X            -7.4915713780      -17.5604663614       11.6847006011  MEMB      26              0.0000000000
      2816        26  SAPS      H6Y            -8.3656275214      -16.0213034622       11.4127589582  MEMB      26              0.0000000000
      2817        26  SAPS      C37            -8.7089720288      -17.6287725297        9.9223647334  MEMB      26              0.0000000000
      2818        26  SAPS      H7X            -9.7852284549      -17.4875753260        9.7183690195  MEMB      26              0.0000000000
      2819        26  SAPS      H7Y            -8.4494559797      -18.7061466603        9.8936054884  MEMB      26              0.0000000000
      2820        26  SAPS      C38            -7.9628164285      -16.8866786099        8.8237268994  MEMB      26              0.0000000000
      2821        26  SAPS      H8X            -6.8670797602      -17.0968610807        8.8965971515  MEMB      26              0.0000000000
      2822        26  SAPS      H8Y            -8.2377052856      -15.8315757940        8.9840463015  MEMB      26              0.0000000000
      2823        26  SAPS      C39            -8.2705212378      -17.1859775729        7.3943820579  MEMB      26              0.0000000000
      2824        26  SAPS      H9X            -8.3279144329      -18.2554301664        7.6194583294  MEMB      26              0.0000000000
      2825        26  SAPS      H9Y            -7.4532560656      -16.8880017007        6.6898989426  MEMB      26              0.0000000000
      2826        26  SAPS      C310           -9.6528342437      -16.8230024002        6.9178079478  MEMB      26              0.0000000000
      2827        26  SAPS      H10X           -9.8389014632      -15.7407676387        7.0432096496  MEMB      26              0.0000000000
      2828        26  SAPS      H10Y          -10.2871337565      -17.3688667310        7.6454087349  MEMB      26              0.0000000000
      2829        26  SAPS      C311           -9.9997604059      -17.4085454213        5.5399340894  MEMB      26              0.0000000000
      2830        26  SAPS      H11X           -9.8316135576      -18.4942428567        5.6444125854  MEMB      26              0.0000000000
      2831        26  SAPS      H11Y           -9.3045620114      -17.0751685238        4.7439655028  MEMB      26              0.0000000000
      2832        26  SAPS      C312          -11.4872138978      -17.2858032585        5.1790846332  MEMB      26              0.0000000000
      2833        26  SAPS      H12X          -12.0793309322      -17.4661373676        6.1074002199  MEMB      26              0.0000000000
      2834        26  SAPS      H12Y          -11.8161207169      -18.0637064790        4.4527742172  MEMB      26              0.0000000000
      2835        26  SAPS      C313          -11.8840150760      -15.9181781106        4.6345028876  MEMB      26              0.0000000000
      2836        26  SAPS      H13X          -11.6646608744      -15.1589112899        5.4113199510  MEMB      26              0.0000000000
      2837        26  SAPS      H13Y          -12.9919553289      -15.9654701094        4.4583214354  MEMB      26              0.0000000000
      2838        26  SAPS      C314          -11.1253501769      -15.4011594484        3.3980881649  MEMB      26              0.0000000000
      2839        26  SAPS      H14X          -10.0549137975      -15.6270010192        3.2903777841  MEMB      26              0.0000000000
      2840        26  SAPS      H14Y          -11.3651413297      -14.3103184223        3.3383795907  MEMB      26              0.0000000000
      2841        26  SAPS      C315          -11.7472621036      -15.9046113612        2.1729426058  MEMB      26              0.0000000000
      2842        26  SAPS      H15X          -12.7279590714      -15.3820461055        2.4118313563  MEMB      26              0.0000000000
      2843        26  SAPS      H15Y          -11.7722378774      -17.0272965267        2.1255997136  MEMB      26              0.0000000000
      2844        26  SAPS      C316          -11.4961600556      -15.3328006583        0.8139137551  MEMB      26              0.0000000000
      2845        26  SAPS      H16X          -10.4766523514      -14.9057105846        0.9197567570  MEMB      26              0.0000000000
      2846        26  SAPS      H16Y          -12.2534167289      -14.5415448767        0.5914495959  MEMB      26              0.0000000000
      2847        26  SAPS      C317          -11.6655915694      -16.3765484718       -0.3018636319  MEMB      26              0.0000000000
      2848        26  SAPS      H17X          -12.7195018773      -16.5596938437       -0.5962962165  MEMB      26              0.0000000000
      2849        26  SAPS      H17Y          -11.1388271298      -17.3161332090       -0.0286426331  MEMB      26              0.0000000000
      2850        26  SAPS      C318          -11.0194570382      -15.8498538725       -1.5134998685  MEMB      26              0.0000000000
      2851        26  SAPS      H18X          -11.6052369842      -15.0397881792       -1.9956640817  MEMB      26              0.0000000000
      2852        26  SAPS      H18Y          -10.7017198372      -16.5978313535       -2.2639040614  MEMB      26              0.0000000000
      2853        26  SAPS      H18Z          -10.1440623056      -15.4133596252       -1.0337438313  MEMB      26              0.0000000000
      2854        27  SAPE      N               1.0938040461       23.9558012965       21.9344685464  MEMB      27              0.0000000000
      2855        27  SAPE      HN1             0.0905103899       24.1896662647       21.7927342610  MEMB      27              0.0000000000
      2856        27  SAPE      HN2             1.1704707591       23.0965045215       22.5251629008  MEMB      27              0.0000000000
      2857        27  SAPE      HN3             1.6259940325       24.7606963358       22.3151400296  MEMB      27              0.0000000000
      2858        27  SAPE      C12             1.6836819274       23.6710319249       20.5873865734  MEMB      27              0.0000000000
      2859        27  SAPE      H12A            2.5277034465       22.9877296432       20.7477463400  MEMB      27              0.0000000000
      2860        27  SAPE      H12B            2.0470690558       24.6195262705       20.1546371852  MEMB      27              0.0000000000
      2861        27  SAPE      C11             0.6168224384       23.0376243469       19.7103282668  MEMB      27              0.0000000000
      2862        27  SAPE      H11A            0.8762614501       23.0774632845       18.6266543453  MEMB      27              0.0000000000
      2863        27  SAPE      H11B           -0.3082365091       23.6437112273       19.7872849236  MEMB      27              0.0000000000
      2864        27  SAPE      P               1.2395430307       20.4980513360       19.6051794086  MEMB      27              0.0000000000
      2865        27  SAPE      O13             2.6155454314       20.6255794320       20.1235539461  MEMB      27              0.0000000000
      2866        27  SAPE      O14             0.4693045886       19.2660922142       19.8786448654  MEMB      27              0.0000000000
      2867        27  SAPE      O12             0.3689644496       21.7160209934       20.1729967446  MEMB      27              0.0000000000
      2868        27  SAPE      O11             1.2032231836       20.8613089783       18.0915923788  MEMB      27              0.0000000000
      2869        27  SAPE      C1             -0.0243316449       20.9737647517       17.3682621105  MEMB      27              0.0000000000
      2870        27  SAPE      HA             -0.9334900764       20.8973729982       18.0068779237  MEMB      27              0.0000000000
      2871        27  SAPE      HB              0.0012550111       21.9274535286       16.7941808212  MEMB      27              0.0000000000
      2872        27  SAPE      C2             -0.0844028870       19.9285507712       16.2919612583  MEMB      27              0.0000000000
      2873        27  SAPE      HS             -0.6307703585       19.0263842752       16.7360326775  MEMB      27              0.0000000000
      2874        27  SAPE      O21             1.3234632191       19.8333234765       15.8917909593  MEMB      27              0.0000000000
      2875        27  SAPE      C21             1.4986916616       18.6336708734       15.4519488661  MEMB      27              0.0000000000
      2876        27  SAPE      O22             0.5950331853       17.8638757815       15.5117260577  MEMB      27              0.0000000000
      2877        27  SAPE      C22             2.8067517985       18.3596455356       14.7822489966  MEMB      27              0.0000000000
      2878        27  SAPE      H2R             3.5281634371       17.9726048709       15.4839497158  MEMB      27              0.0000000000
      2879        27  SAPE      H2S             2.7969859452       17.5645344838       14.0120094113  MEMB      27              0.0000000000
      2880        27  SAPE      C3             -0.9448962659       20.3902766455       15.1019278520  MEMB      27              0.0000000000
      2881        27  SAPE      HX             -0.2635364105       20.9740309765       14.4464503138  MEMB      27              0.0000000000
      2882        27  SAPE      HY             -1.7833368333       21.0007155871       15.5023943835  MEMB      27              0.0000000000
      2883        27  SAPE      O31            -1.4679659494       19.2609221079       14.4267176147  MEMB      27              0.0000000000
      2884        27  SAPE      C31            -1.6748929143       19.3974106024       13.1479437811  MEMB      27              0.0000000000
      2885        27  SAPE      O32            -1.4882729989       20.3762766173       12.4560786006  MEMB      27              0.0000000000
      2886        27  SAPE      C32            -2.2898285118       18.1716717651       12.6441051637  MEMB      27              0.0000000000
      2887        27  SAPE      H2X            -3.0712928007       18.4559641590       11.9532503602  MEMB      27              0.0000000000
      2888        27  SAPE      H2Y            -2.7010945759       17.4585836923       13.3635734655  MEMB      27              0.0000000000
      2889        27  SAPE      C23             3.2161060094       19.7031793577       14.3069665325  MEMB      27              0.0000000000
      2890        27  SAPE      H3R             3.4306672626       20.3774251621       15.1811227918  MEMB      27              0.0000000000
      2891        27  SAPE      H3S             2.4939685057       20.2326934010       13.6538797817  MEMB      27              0.0000000000
      2892        27  SAPE      C24             4.4058745392       19.5438406865       13.4929680930  MEMB      27              0.0000000000
      2893        27  SAPE      H4R             5.2353316440       19.0594748493       14.0686606383  MEMB      27              0.0000000000
      2894        27  SAPE      H4S             4.5769927051       20.6563602291       13.4198037063  MEMB      27              0.0000000000
      2895        27  SAPE      C25             4.3816819674       18.8638374212       12.1689731699  MEMB      27              0.0000000000
      2896        27  SAPE      H5R             4.3639689112       17.7710399116       12.2520200142  MEMB      27              0.0000000000
      2897        27  SAPE      C26             4.4594940887       19.4387763622       10.9603384068  MEMB      27              0.0000000000
      2898        27  SAPE      H6R             4.4778866843       18.7605446447       10.1401629156  MEMB      27              0.0000000000
      2899        27  SAPE      C27             4.5802636569       20.8969984469       10.5837253245  MEMB      27              0.0000000000
      2900        27  SAPE      H7R             5.3507804016       21.3824643284       11.1942892163  MEMB      27              0.0000000000
      2901        27  SAPE      H7S             3.6175838267       21.3388569597       10.8569913882  MEMB      27              0.0000000000
      2902        27  SAPE      C28             4.8114510745       21.5118203213        9.2472816706  MEMB      27              0.0000000000
      2903        27  SAPE      H8R             5.9003169183       21.6693109482        9.0758449320  MEMB      27              0.0000000000
      2904        27  SAPE      C29             4.0509547564       21.4586531400        8.1394101981  MEMB      27              0.0000000000
      2905        27  SAPE      H9R             4.5514317070       21.8212411671        7.2187949252  MEMB      27              0.0000000000
      2906        27  SAPE      C210            2.7440983586       20.7455101652        7.8612268718  MEMB      27              0.0000000000
      2907        27  SAPE      H10R            2.3570849001       20.2199277743        8.7604359282  MEMB      27              0.0000000000
      2908        27  SAPE      H10S            2.7445192966       19.9657880339        7.0552850348  MEMB      27              0.0000000000
      2909        27  SAPE      C211            1.9496132854       21.7209878821        7.1066365489  MEMB      27              0.0000000000
      2910        27  SAPE      H11R            2.5477006588       22.2702294860        6.3626551727  MEMB      27              0.0000000000
      2911        27  SAPE      C212            0.6460652940       21.9306773795        7.1683947177  MEMB      27              0.0000000000
      2912        27  SAPE      H12R            0.3044248418       22.7764842045        6.5668628137  MEMB      27              0.0000000000
      2913        27  SAPE      C213           -0.3759165764       21.2304434637        8.0288077687  MEMB      27              0.0000000000
      2914        27  SAPE      H13R           -0.2000557510       21.4376793850        9.1079350851  MEMB      27              0.0000000000
      2915        27  SAPE      H13S           -0.2839449732       20.1234592270        7.9306948466  MEMB      27              0.0000000000
      2916        27  SAPE      C214           -1.7226627225       21.7970860087        7.6265561600  MEMB      27              0.0000000000
      2917        27  SAPE      H14R           -1.8322541362       22.8768431749        7.7979854622  MEMB      27              0.0000000000
      2918        27  SAPE      C215           -2.8012950410       21.1365876264        7.1851960456  MEMB      27              0.0000000000
      2919        27  SAPE      H15R           -3.7095588904       21.7130463528        6.9391566360  MEMB      27              0.0000000000
      2920        27  SAPE      C216           -2.8698449958       19.6466031119        7.0090430773  MEMB      27              0.0000000000
      2921        27  SAPE      H16R           -3.6412882302       19.2878244823        7.7084150098  MEMB      27              0.0000000000
      2922        27  SAPE      H16S           -1.9198998791       19.1635038103        7.3242088724  MEMB      27              0.0000000000
      2923        27  SAPE      C217           -3.1006195833       19.1282534607        5.5811304682  MEMB      27              0.0000000000
      2924        27  SAPE      H17R           -4.0539610903       19.4867829026        5.1384766671  MEMB      27              0.0000000000
      2925        27  SAPE      H17S           -3.1623636150       18.0146937561        5.6206582514  MEMB      27              0.0000000000
      2926        27  SAPE      C218           -1.9588961022       19.5590567418        4.6519731689  MEMB      27              0.0000000000
      2927        27  SAPE      H18R           -0.9782922066       19.2031081523        5.0453652795  MEMB      27              0.0000000000
      2928        27  SAPE      H18S           -1.9196485511       20.6694438670        4.6031961535  MEMB      27              0.0000000000
      2929        27  SAPE      C219           -2.1393061261       19.0591987841        3.2254319530  MEMB      27              0.0000000000
      2930        27  SAPE      H19R           -2.5119480223       18.0115166351        3.2663496334  MEMB      27              0.0000000000
      2931        27  SAPE      H19S           -1.1278470354       19.0497055369        2.7669246351  MEMB      27              0.0000000000
      2932        27  SAPE      C220           -3.0347328051       19.9646195610        2.3703963764  MEMB      27              0.0000000000
      2933        27  SAPE      H20R           -2.5037332220       20.9072546309        2.1138245891  MEMB      27              0.0000000000
      2934        27  SAPE      H20S           -3.9714016661       20.2253766151        2.9101600961  MEMB      27              0.0000000000
      2935        27  SAPE      H20T           -3.2803357617       19.4755239934        1.4072313999  MEMB      27              0.0000000000
      2936        27  SAPE      C33            -1.3469708772       17.2557168175       12.1664579604  MEMB      27              0.0000000000
      2937        27  SAPE      H3X            -1.8355054004       16.2497359413       12.1392905049  MEMB      27              0.0000000000
      2938        27  SAPE      H3Y            -0.5129651752       17.1684497431       12.8427899669  MEMB      27              0.0000000000
      2939        27  SAPE      C34            -0.9800825994       17.8594116502       10.8141773187  MEMB      27              0.0000000000
      2940        27  SAPE      H4X            -0.4968891153       18.8260105648       10.8548809585  MEMB      27              0.0000000000
      2941        27  SAPE      H4Y            -1.7544997084       17.6785198738       10.0233284711  MEMB      27              0.0000000000
      2942        27  SAPE      C35             0.1926713609       17.2683708599       10.2414551484  MEMB      27              0.0000000000
      2943        27  SAPE      H5X            -0.5913163858       16.5182026765       10.5658362365  MEMB      27              0.0000000000
      2944        27  SAPE      H5Y             1.1240901402       17.0638237459       10.8092787448  MEMB      27              0.0000000000
      2945        27  SAPE      C36             0.5026113827       17.2101684264        8.6855738568  MEMB      27              0.0000000000
      2946        27  SAPE      H6X             1.1503216537       18.0937624982        8.7606667121  MEMB      27              0.0000000000
      2947        27  SAPE      H6Y            -0.4619410033       17.0573000099        8.1500243786  MEMB      27              0.0000000000
      2948        27  SAPE      C37             1.5376622387       16.2629092584        7.9699007763  MEMB      27              0.0000000000
      2949        27  SAPE      H7X             1.3781639880       15.3867642003        7.4875804684  MEMB      27              0.0000000000
      2950        27  SAPE      H7Y             2.1664888636       15.9291412274        8.6939820791  MEMB      27              0.0000000000
      2951        27  SAPE      C38             2.5618736159       16.4422479202        6.9751999973  MEMB      27              0.0000000000
      2952        27  SAPE      H8X             3.2803570329       15.6064912948        6.6671198029  MEMB      27              0.0000000000
      2953        27  SAPE      H8Y             3.0017847073       17.1368118313        7.6099365029  MEMB      27              0.0000000000
      2954        27  SAPE      C39             1.7662485089       16.9412427945        5.9121578387  MEMB      27              0.0000000000
      2955        27  SAPE      H9X             1.0542897056       17.7048204580        6.2172217731  MEMB      27              0.0000000000
      2956        27  SAPE      H9Y             1.1361019931       16.2406775090        5.4985747561  MEMB      27              0.0000000000
      2957        27  SAPE      C310            2.7334979462       17.2590133720        4.9581055757  MEMB      27              0.0000000000
      2958        27  SAPE      H10X            3.5189768957       16.4644253389        4.8248894672  MEMB      27              0.0000000000
      2959        27  SAPE      H10Y            3.2624597325       17.9272560905        5.6967174779  MEMB      27              0.0000000000
      2960        27  SAPE      C311            2.0604234534       17.8537479555        3.6711500223  MEMB      27              0.0000000000
      2961        27  SAPE      H11X            1.0515387089       18.1162101175        3.9713979752  MEMB      27              0.0000000000
      2962        27  SAPE      H11Y            2.1423424256       17.0216312668        2.9143789398  MEMB      27              0.0000000000
      2963        27  SAPE      C312            2.3334309701       19.3076698385        3.0851218626  MEMB      27              0.0000000000
      2964        27  SAPE      H12X            2.9222375411       18.6242024240        2.5891370100  MEMB      27              0.0000000000
      2965        27  SAPE      H12Y            2.9592743625       20.1656769934        3.4661772174  MEMB      27              0.0000000000
      2966        27  SAPE      C313            2.2339667215       19.9669395233        1.8256476633  MEMB      27              0.0000000000
      2967        27  SAPE      H13X            2.1892773015       19.1043674470        1.0985982024  MEMB      27              0.0000000000
      2968        27  SAPE      H13Y            3.0850564392       20.7008192994        1.6266055278  MEMB      27              0.0000000000
      2969        27  SAPE      C314            1.1944203372       20.8087370327        2.4085296139  MEMB      27              0.0000000000
      2970        27  SAPE      H14X            1.6551659944       21.5821852265        3.0919994876  MEMB      27              0.0000000000
      2971        27  SAPE      H14Y            0.5097550031       20.1451807272        2.9948949277  MEMB      27              0.0000000000
      2972        27  SAPE      C315            0.5730104150       21.3072747899        1.2260072469  MEMB      27              0.0000000000
      2973        27  SAPE      H15X            1.2373691155       22.1453647390        0.8856124194  MEMB      27              0.0000000000
      2974        27  SAPE      H15Y           -0.3905478842       21.7268493768        1.5233269056  MEMB      27              0.0000000000
      2975        27  SAPE      C316            0.3904634253       20.1230976123        0.2283940984  MEMB      27              0.0000000000
      2976        27  SAPE      H16X           -0.0344936079       19.1929999388        0.6059218198  MEMB      27              0.0000000000
      2977        27  SAPE      H16Y            1.3523920381       19.8148458498       -0.3106162308  MEMB      27              0.0000000000
      2978        27  SAPE      C317           -0.5221174174       20.5971290830       -0.7734088566  MEMB      27              0.0000000000
      2979        27  SAPE      H17X           -1.2654373579       21.3831944950       -0.4779563900  MEMB      27              0.0000000000
      2980        27  SAPE      H17Y           -0.9314644451       20.0318045909       -1.5941132564  MEMB      27              0.0000000000
      2981        27  SAPE      C318            0.4121609536       21.2201387148       -1.5757993227  MEMB      27              0.0000000000
      2982        27  SAPE      H18X            1.4319587209       21.2528212207       -1.9379080267  MEMB      27              0.0000000000
      2983        27  SAPE      H18Y            1.2227335045       21.5792251783       -0.9441923824  MEMB      27              0.0000000000
      2984        27  SAPE      H18Z           -0.2465776144       21.7001322508       -2.2757607151  MEMB      27              0.0000000000
      2985        28  SAPE      N             -17.6522750039      -15.5162150532       18.4792410414  MEMB      28              0.0000000000
      2986        28  SAPE      HN1           -18.2315240819      -15.2020156377       17.6782115821  MEMB      28              0.0000000000
      2987        28  SAPE      HN2           -16.8361764320      -14.8561515498       18.5830306278  MEMB      28              0.0000000000
      2988        28  SAPE      HN3           -17.2885649619      -16.4683983037       18.2777779569  MEMB      28              0.0000000000
      2989        28  SAPE      C12           -18.4445371185      -15.4855731329       19.7730745799  MEMB      28              0.0000000000
      2990        28  SAPE      H12A          -17.7484945764      -15.7548283077       20.5886255651  MEMB      28              0.0000000000
      2991        28  SAPE      H12B          -19.2611481239      -16.2323947655       19.6807978983  MEMB      28              0.0000000000
      2992        28  SAPE      C11           -19.0253524950      -14.0997449740       20.0823292312  MEMB      28              0.0000000000
      2993        28  SAPE      H11A          -20.0123990110      -14.1690207691       20.5928978969  MEMB      28              0.0000000000
      2994        28  SAPE      H11B          -19.2057951963      -13.6436268301       19.1119535999  MEMB      28              0.0000000000
      2995        28  SAPE      P             -16.9786532293      -12.4076933737       20.3755682395  MEMB      28              0.0000000000
      2996        28  SAPE      O13           -16.3164116157      -11.8443794001       21.5606004558  MEMB      28              0.0000000000
      2997        28  SAPE      O14           -16.2310249854      -13.2334223966       19.3829658527  MEMB      28              0.0000000000
      2998        28  SAPE      O12           -18.1750572044      -13.2994254721       20.8870184983  MEMB      28              0.0000000000
      2999        28  SAPE      O11           -17.6734113064      -11.2240411563       19.6580382093  MEMB      28              0.0000000000
      3000        28  SAPE      C1            -18.6499137249      -10.3505368194       20.2432662639  MEMB      28              0.0000000000
      3001        28  SAPE      HA            -19.5584875153      -10.9079252532       20.5885370169  MEMB      28              0.0000000000
      3002        28  SAPE      HB            -18.3167236451       -9.8414571316       21.1497573646  MEMB      28              0.0000000000
      3003        28  SAPE      C2            -19.0388874886       -9.3314626470       19.1333129578  MEMB      28              0.0000000000
      3004        28  SAPE      HS            -19.8719238063       -8.6867829594       19.4854147317  MEMB      28              0.0000000000
      3005        28  SAPE      O21           -19.4485455148       -9.8789015460       17.9348921921  MEMB      28              0.0000000000
      3006        28  SAPE      C21           -19.6583456299      -11.1040772756       17.9365331646  MEMB      28              0.0000000000
      3007        28  SAPE      O22           -20.1147819018      -11.8490391760       18.7847085377  MEMB      28              0.0000000000
      3008        28  SAPE      C22           -19.5677870404      -11.5505199333       16.5895153438  MEMB      28              0.0000000000
      3009        28  SAPE      H2R           -20.5822817750      -11.8946566258       16.6596284161  MEMB      28              0.0000000000
      3010        28  SAPE      H2S           -19.3860939841      -10.7402622065       15.8590224856  MEMB      28              0.0000000000
      3011        28  SAPE      C3            -17.9053427007       -8.4358544734       18.6552088564  MEMB      28              0.0000000000
      3012        28  SAPE      HX            -17.3860247309       -8.2670287400       19.5125517577  MEMB      28              0.0000000000
      3013        28  SAPE      HY            -18.3055052537       -7.4907626099       18.2221114022  MEMB      28              0.0000000000
      3014        28  SAPE      O31           -16.7184221673       -9.0085946828       18.1134354742  MEMB      28              0.0000000000
      3015        28  SAPE      C31           -16.7577395037       -9.1899995566       16.8493765280  MEMB      28              0.0000000000
      3016        28  SAPE      O32           -17.6050818520       -8.7711847966       16.0826466682  MEMB      28              0.0000000000
      3017        28  SAPE      C32           -15.5702491974      -10.0803158149       16.4821180171  MEMB      28              0.0000000000
      3018        28  SAPE      H2X           -15.7976477857      -11.1061270736       16.8352315091  MEMB      28              0.0000000000
      3019        28  SAPE      H2Y           -14.6810152278       -9.7538564176       17.0642312600  MEMB      28              0.0000000000
      3020        28  SAPE      C23           -18.9729757967      -12.8889856091       16.4094681598  MEMB      28              0.0000000000
      3021        28  SAPE      H3R           -19.5060235376      -13.6167956989       17.0582801341  MEMB      28              0.0000000000
      3022        28  SAPE      H3S           -17.9647636462      -12.5710335468       16.7368851588  MEMB      28              0.0000000000
      3023        28  SAPE      C24           -18.7827491417      -13.2900366011       14.9806697313  MEMB      28              0.0000000000
      3024        28  SAPE      H4R           -17.9019841045      -13.9211938912       14.9560290088  MEMB      28              0.0000000000
      3025        28  SAPE      H4S           -18.4464243430      -12.3729225978       14.4409912011  MEMB      28              0.0000000000
      3026        28  SAPE      C25           -19.5339069583      -14.2266666500       14.1707286479  MEMB      28              0.0000000000
      3027        28  SAPE      H5R           -20.3783889135      -14.8472105125       14.6161818185  MEMB      28              0.0000000000
      3028        28  SAPE      C26           -19.8001788491      -13.6609176071       13.0236383670  MEMB      28              0.0000000000
      3029        28  SAPE      H6R           -20.8122720927      -14.1990517732       12.9713785382  MEMB      28              0.0000000000
      3030        28  SAPE      C27           -19.5414993903      -12.1045291222       12.2706559886  MEMB      28              0.0000000000
      3031        28  SAPE      H7R           -19.3007276620      -11.3073569184       12.9910034526  MEMB      28              0.0000000000
      3032        28  SAPE      H7S           -20.4052088930      -11.3432223079       12.0479626826  MEMB      28              0.0000000000
      3033        28  SAPE      C28           -19.4663595582      -11.6313947822       10.8361354843  MEMB      28              0.0000000000
      3034        28  SAPE      H8R           -19.4990370582      -12.3820387559       10.0965629600  MEMB      28              0.0000000000
      3035        28  SAPE      C29           -19.5316654833      -10.4543648141       10.2572851968  MEMB      28              0.0000000000
      3036        28  SAPE      H9R           -19.3000960962      -10.5007334319        9.1969269130  MEMB      28              0.0000000000
      3037        28  SAPE      C210          -19.7198238758       -9.1789048904       10.9935120781  MEMB      28              0.0000000000
      3038        28  SAPE      H10R          -20.6887141206       -9.0698240875       11.5213174978  MEMB      28              0.0000000000
      3039        28  SAPE      H10S          -19.7269661315       -8.3920193657       10.2399285791  MEMB      28              0.0000000000
      3040        28  SAPE      C211          -18.6657306874       -9.1664451658       12.0442724019  MEMB      28              0.0000000000
      3041        28  SAPE      H11R          -19.0739318652       -8.7174040804       12.9696487668  MEMB      28              0.0000000000
      3042        28  SAPE      C212          -17.3263997235       -9.3709680800       11.8980984740  MEMB      28              0.0000000000
      3043        28  SAPE      H12R          -16.7451294175       -8.9719498605       12.7368166789  MEMB      28              0.0000000000
      3044        28  SAPE      C213          -16.4184909126       -9.6383095095       10.6897300322  MEMB      28              0.0000000000
      3045        28  SAPE      H13R          -16.8006817888      -10.5148820544       10.1574616564  MEMB      28              0.0000000000
      3046        28  SAPE      H13S          -15.4716414883       -9.8506121406       11.2072210484  MEMB      28              0.0000000000
      3047        28  SAPE      C214          -15.9393884804       -8.5993684486        9.6663478748  MEMB      28              0.0000000000
      3048        28  SAPE      H14R          -15.4698145949       -7.6806186385       10.0285470662  MEMB      28              0.0000000000
      3049        28  SAPE      C215          -16.0157877172       -8.5280182116        8.3588300732  MEMB      28              0.0000000000
      3050        28  SAPE      H15R          -15.8696699785       -7.5428031227        7.9004391156  MEMB      28              0.0000000000
      3051        28  SAPE      C216          -16.6319965541       -9.5323656690        7.5169487614  MEMB      28              0.0000000000
      3052        28  SAPE      H16R          -16.9053062519      -10.4093927663        8.1278481920  MEMB      28              0.0000000000
      3053        28  SAPE      H16S          -15.8706413792       -9.7292523258        6.7489128524  MEMB      28              0.0000000000
      3054        28  SAPE      C217          -17.8890028380       -9.2207985004        6.8030304512  MEMB      28              0.0000000000
      3055        28  SAPE      H17R          -17.9370175465       -8.2686868720        6.3552979651  MEMB      28              0.0000000000
      3056        28  SAPE      H17S          -18.6967733195       -9.0726048902        7.5327392215  MEMB      28              0.0000000000
      3057        28  SAPE      C218          -17.9790323680      -10.1845315714        5.6632274515  MEMB      28              0.0000000000
      3058        28  SAPE      H18R          -18.3707143878      -11.1549328480        6.0252655123  MEMB      28              0.0000000000
      3059        28  SAPE      H18S          -17.0627636005      -10.2124410962        5.0438380254  MEMB      28              0.0000000000
      3060        28  SAPE      C219          -18.8538291066       -9.7251602790        4.6109915065  MEMB      28              0.0000000000
      3061        28  SAPE      H19R          -18.8542440885       -8.6852971407        4.2531081600  MEMB      28              0.0000000000
      3062        28  SAPE      H19S          -19.7033454849       -9.5608198352        5.1446469273  MEMB      28              0.0000000000
      3063        28  SAPE      C220          -19.2271959667      -10.7841594903        3.6478768683  MEMB      28              0.0000000000
      3064        28  SAPE      H20R          -18.6142402756      -10.8392241418        2.7631608667  MEMB      28              0.0000000000
      3065        28  SAPE      H20S          -19.9556726593      -10.2013066450        3.1341785462  MEMB      28              0.0000000000
      3066        28  SAPE      H20T          -19.7793734644      -11.7006271383        4.0025167170  MEMB      28              0.0000000000
      3067        28  SAPE      C33           -15.3281067782      -10.1021982989       14.9540656834  MEMB      28              0.0000000000
      3068        28  SAPE      H3X           -15.1007299173       -9.0798739719       14.5658280252  MEMB      28              0.0000000000
      3069        28  SAPE      H3Y           -16.2018387345      -10.4961451128       14.4138445472  MEMB      28              0.0000000000
      3070        28  SAPE      C34           -14.1410842107      -10.9518511858       14.5429843900  MEMB      28              0.0000000000
      3071        28  SAPE      H4X           -13.5351660666      -10.6552874055       15.3680071368  MEMB      28              0.0000000000
      3072        28  SAPE      H4Y           -13.6812459780      -10.6471794802       13.5796026575  MEMB      28              0.0000000000
      3073        28  SAPE      C35           -13.9120134274      -12.3864173553       14.9322210041  MEMB      28              0.0000000000
      3074        28  SAPE      H5X           -13.9642403581      -12.4913182772       16.0446964849  MEMB      28              0.0000000000
      3075        28  SAPE      H5Y           -12.8555722542      -12.6494214363       14.6629278300  MEMB      28              0.0000000000
      3076        28  SAPE      C36           -14.9569812977      -13.2233629729       14.2475392341  MEMB      28              0.0000000000
      3077        28  SAPE      H6X           -15.9471694110      -12.8634263270       14.5554753383  MEMB      28              0.0000000000
      3078        28  SAPE      H6Y           -14.7858824602      -14.2153868163       14.6814640739  MEMB      28              0.0000000000
      3079        28  SAPE      C37           -14.8476918842      -13.1662987521       12.7154192386  MEMB      28              0.0000000000
      3080        28  SAPE      H7X           -13.8421770515      -13.4165505356       12.6399944767  MEMB      28              0.0000000000
      3081        28  SAPE      H7Y           -14.7341717453      -12.1890545130       12.2337790500  MEMB      28              0.0000000000
      3082        28  SAPE      C38           -15.5572517006      -14.1869734080       11.8194201264  MEMB      28              0.0000000000
      3083        28  SAPE      H8X           -15.8066450856      -15.1132875614       12.3717587338  MEMB      28              0.0000000000
      3084        28  SAPE      H8Y           -14.9066536765      -14.4630820202       10.9481034125  MEMB      28              0.0000000000
      3085        28  SAPE      C39           -16.8257698764      -13.5852200068       11.3005823745  MEMB      28              0.0000000000
      3086        28  SAPE      H9X           -16.6234544980      -12.5029719914       11.1402612590  MEMB      28              0.0000000000
      3087        28  SAPE      H9Y           -17.5559669877      -13.6839891055       12.1215642580  MEMB      28              0.0000000000
      3088        28  SAPE      C310          -17.3704734441      -14.2373430865       10.0316262705  MEMB      28              0.0000000000
      3089        28  SAPE      H10X          -18.3579476203      -14.6478221938       10.2770648662  MEMB      28              0.0000000000
      3090        28  SAPE      H10Y          -16.7843404873      -15.1142972802        9.7031733057  MEMB      28              0.0000000000
      3091        28  SAPE      C311          -17.5151833493      -13.2213775157        8.9061810169  MEMB      28              0.0000000000
      3092        28  SAPE      H11X          -16.5582721277      -13.0962624671        8.3749790118  MEMB      28              0.0000000000
      3093        28  SAPE      H11Y          -17.7477039863      -12.2388246033        9.3480283898  MEMB      28              0.0000000000
      3094        28  SAPE      C312          -18.5586572556      -13.5366389344        7.8575489791  MEMB      28              0.0000000000
      3095        28  SAPE      H12X          -18.5141204833      -12.7181150313        7.1245723895  MEMB      28              0.0000000000
      3096        28  SAPE      H12Y          -19.5959126788      -13.4231803253        8.1658265484  MEMB      28              0.0000000000
      3097        28  SAPE      C313          -18.3059678462      -14.7823580966        7.0467881720  MEMB      28              0.0000000000
      3098        28  SAPE      H13X          -18.6640197753      -15.7400926585        7.4973946607  MEMB      28              0.0000000000
      3099        28  SAPE      H13Y          -17.2052530030      -14.8691460207        6.8912081686  MEMB      28              0.0000000000
      3100        28  SAPE      C314          -19.0090109950      -14.4356072881        5.7369803464  MEMB      28              0.0000000000
      3101        28  SAPE      H14X          -18.5756455118      -13.5564150433        5.2522019363  MEMB      28              0.0000000000
      3102        28  SAPE      H14Y          -20.1163686406      -14.3557817144        5.8961131052  MEMB      28              0.0000000000
      3103        28  SAPE      C315          -18.7935650783      -15.4469132578        4.7203010222  MEMB      28              0.0000000000
      3104        28  SAPE      H15X          -19.3561848452      -16.0743998493        5.4010157383  MEMB      28              0.0000000000
      3105        28  SAPE      H15Y          -17.7497649144      -15.7781623346        4.6194442063  MEMB      28              0.0000000000
      3106        28  SAPE      C316          -19.5900107132      -15.4051889237        3.4509660005  MEMB      28              0.0000000000
      3107        28  SAPE      H16X          -20.6747894824      -15.5006836340        3.6841900308  MEMB      28              0.0000000000
      3108        28  SAPE      H16Y          -19.2219301217      -16.2377063534        2.8519045060  MEMB      28              0.0000000000
      3109        28  SAPE      C317          -19.2368175703      -14.3148127283        2.5017750175  MEMB      28              0.0000000000
      3110        28  SAPE      H17X          -18.1327098550      -14.1701740482        2.5207538633  MEMB      28              0.0000000000
      3111        28  SAPE      H17Y          -19.7841818190      -13.4591619986        2.9305331532  MEMB      28              0.0000000000
      3112        28  SAPE      C318          -19.6673565425      -14.5810713084        1.0646897823  MEMB      28              0.0000000000
      3113        28  SAPE      H18X          -20.6554925511      -15.0639649096        1.0254176986  MEMB      28              0.0000000000
      3114        28  SAPE      H18Y          -18.9528575031      -15.2204072846        0.4990987346  MEMB      28              0.0000000000
      3115        28  SAPE      H18Z          -19.7567423688      -13.5991483089        0.5691884939  MEMB      28              0.0000000000
      3116        29  SAPE      N              -5.0186619559      -22.0011392063       22.5192716382  MEMB      29              0.0000000000
      3117        29  SAPE      HN1            -5.6110841783      -22.8101304813       22.7916042411  MEMB      29              0.0000000000
      3118        29  SAPE      HN2            -4.8337072143      -21.3727175554       23.3274461576  MEMB      29              0.0000000000
      3119        29  SAPE      HN3            -5.4315223324      -21.4879188196       21.7070877281  MEMB      29              0.0000000000
      3120        29  SAPE      C12            -3.7218485599      -22.5569945304       22.0322777413  MEMB      29              0.0000000000
      3121        29  SAPE      H12A           -3.2455824880      -22.9351771421       22.9279107206  MEMB      29              0.0000000000
      3122        29  SAPE      H12B           -3.0590435481      -21.7455858628       21.6840424145  MEMB      29              0.0000000000
      3123        29  SAPE      C11            -3.9979370036      -23.5639407313       20.9112364801  MEMB      29              0.0000000000
      3124        29  SAPE      H11A           -4.5669076224      -24.4296353391       21.3174922136  MEMB      29              0.0000000000
      3125        29  SAPE      H11B           -3.0567646831      -24.0179678349       20.5137495281  MEMB      29              0.0000000000
      3126        29  SAPE      P              -4.1278066640      -21.8469514593       18.9286085250  MEMB      29              0.0000000000
      3127        29  SAPE      O13            -4.7271550541      -20.5818261527       19.4054651639  MEMB      29              0.0000000000
      3128        29  SAPE      O14            -2.6694683520      -21.9787705360       18.9590968888  MEMB      29              0.0000000000
      3129        29  SAPE      O12            -4.7821714835      -22.9393945558       19.8908463564  MEMB      29              0.0000000000
      3130        29  SAPE      O11            -4.7183200112      -22.1670467693       17.5093171260  MEMB      29              0.0000000000
      3131        29  SAPE      C1             -6.1319551114      -22.1956024901       17.3686010727  MEMB      29              0.0000000000
      3132        29  SAPE      HA             -6.5643179027      -23.0065151997       17.9891554163  MEMB      29              0.0000000000
      3133        29  SAPE      HB             -6.5959019045      -21.2208841799       17.6586974914  MEMB      29              0.0000000000
      3134        29  SAPE      C2             -6.5098196159      -22.3744312994       15.9003024418  MEMB      29              0.0000000000
      3135        29  SAPE      HS             -6.2586889502      -23.4348979416       15.6071329392  MEMB      29              0.0000000000
      3136        29  SAPE      O21            -5.8108303127      -21.4077967241       15.1088808171  MEMB      29              0.0000000000
      3137        29  SAPE      C21            -5.2547732929      -21.8015539886       13.9891934486  MEMB      29              0.0000000000
      3138        29  SAPE      O22            -5.1675939269      -22.9395194959       13.5688645914  MEMB      29              0.0000000000
      3139        29  SAPE      C22            -4.7164400413      -20.5519705947       13.2928767964  MEMB      29              0.0000000000
      3140        29  SAPE      H2R            -4.9527294089      -19.6663740739       13.9173781558  MEMB      29              0.0000000000
      3141        29  SAPE      H2S            -3.6132290723      -20.6211330376       13.2514250862  MEMB      29              0.0000000000
      3142        29  SAPE      C3             -7.9850950691      -22.1044244986       15.6910807153  MEMB      29              0.0000000000
      3143        29  SAPE      HX             -8.4531024742      -21.2432073710       16.1620746480  MEMB      29              0.0000000000
      3144        29  SAPE      HY             -8.5923418776      -22.8082871159       16.3221880892  MEMB      29              0.0000000000
      3145        29  SAPE      O31            -8.0614401291      -21.9334947784       14.2329137803  MEMB      29              0.0000000000
      3146        29  SAPE      C31            -9.0556965401      -22.5314352024       13.7267611345  MEMB      29              0.0000000000
      3147        29  SAPE      O32            -9.9642861538      -22.9244644619       14.3434044739  MEMB      29              0.0000000000
      3148        29  SAPE      C32            -9.2011005410      -22.7731005816       12.2602934638  MEMB      29              0.0000000000
      3149        29  SAPE      H2X            -8.5648905129      -21.9291675488       11.9425100698  MEMB      29              0.0000000000
      3150        29  SAPE      H2Y           -10.2635677963      -22.6551756429       12.1370014224  MEMB      29              0.0000000000
      3151        29  SAPE      C23            -5.2669591093      -20.3758867629       11.8612482815  MEMB      29              0.0000000000
      3152        29  SAPE      H3R            -6.3695795550      -20.2301315359       11.8817141266  MEMB      29              0.0000000000
      3153        29  SAPE      H3S            -5.0590318235      -21.2967972034       11.2720838340  MEMB      29              0.0000000000
      3154        29  SAPE      C24            -4.6045948380      -19.1724540801       11.1795560256  MEMB      29              0.0000000000
      3155        29  SAPE      H4R            -3.5039461697      -19.2521202330       11.3300864050  MEMB      29              0.0000000000
      3156        29  SAPE      H4S            -4.9328603498      -18.2605889390       11.7297374262  MEMB      29              0.0000000000
      3157        29  SAPE      C25            -4.9623671598      -19.0764207684        9.7137089188  MEMB      29              0.0000000000
      3158        29  SAPE      H5R            -5.9895493505      -18.7579237322        9.5149373372  MEMB      29              0.0000000000
      3159        29  SAPE      C26            -4.1867008790      -19.3868059811        8.6517288762  MEMB      29              0.0000000000
      3160        29  SAPE      H6R            -4.5200500872      -19.1621831162        7.6402780138  MEMB      29              0.0000000000
      3161        29  SAPE      C27            -2.7897859850      -19.9052270989        8.6383362097  MEMB      29              0.0000000000
      3162        29  SAPE      H7R            -2.1210997111      -19.1827750579        9.1698450207  MEMB      29              0.0000000000
      3163        29  SAPE      H7S            -2.3497030065      -20.0654521004        7.6387809709  MEMB      29              0.0000000000
      3164        29  SAPE      C28            -2.7942087830      -21.2288205499        9.2879660251  MEMB      29              0.0000000000
      3165        29  SAPE      H8R            -2.3142515792      -21.1240429433       10.1708616773  MEMB      29              0.0000000000
      3166        29  SAPE      C29            -3.1770780716      -22.4734271945        9.0842610550  MEMB      29              0.0000000000
      3167        29  SAPE      H9R            -2.9224903727      -23.2373775976        9.8432151563  MEMB      29              0.0000000000
      3168        29  SAPE      C210           -3.8426578791      -22.9268077454        7.8799673797  MEMB      29              0.0000000000
      3169        29  SAPE      H10R           -3.9622574013      -22.0585006693        7.2049079757  MEMB      29              0.0000000000
      3170        29  SAPE      H10S           -4.8305520449      -23.2203152389        8.2551609892  MEMB      29              0.0000000000
      3171        29  SAPE      C211           -3.1246083125      -24.0764054958        7.2402994572  MEMB      29              0.0000000000
      3172        29  SAPE      H11R           -3.1303632408      -25.0151440384        7.8162637677  MEMB      29              0.0000000000
      3173        29  SAPE      C212           -2.6042173613      -24.0605514773        6.0020587604  MEMB      29              0.0000000000
      3174        29  SAPE      H12R           -2.0062327180      -24.9203090286        5.6772473671  MEMB      29              0.0000000000
      3175        29  SAPE      C213           -2.6444088055      -22.9007456837        5.0331020929  MEMB      29              0.0000000000
      3176        29  SAPE      H13R           -2.0900922103      -22.0342955666        5.4550917682  MEMB      29              0.0000000000
      3177        29  SAPE      H13S           -3.7056139618      -22.5932419456        4.8932659034  MEMB      29              0.0000000000
      3178        29  SAPE      C214           -2.0423234218      -23.1392220383        3.6761627354  MEMB      29              0.0000000000
      3179        29  SAPE      H14R           -1.1765060962      -22.4945371241        3.4559991934  MEMB      29              0.0000000000
      3180        29  SAPE      C215           -2.5075958691      -23.9710192418        2.7264054436  MEMB      29              0.0000000000
      3181        29  SAPE      H15R           -1.9636857549      -24.0778754362        1.7820941156  MEMB      29              0.0000000000
      3182        29  SAPE      C216           -3.7258473790      -24.8410462016        2.8172629260  MEMB      29              0.0000000000
      3183        29  SAPE      H16R           -3.8405851409      -25.2294221249        3.8498107219  MEMB      29              0.0000000000
      3184        29  SAPE      H16S           -3.6106345227      -25.7338644247        2.1622825876  MEMB      29              0.0000000000
      3185        29  SAPE      C217           -4.9892770458      -24.1123523839        2.3429090213  MEMB      29              0.0000000000
      3186        29  SAPE      H17R           -4.8090577165      -23.6375936864        1.3527043800  MEMB      29              0.0000000000
      3187        29  SAPE      H17S           -5.2529978990      -23.2698474600        3.0255064968  MEMB      29              0.0000000000
      3188        29  SAPE      C218           -6.1882852080      -25.0698713477        2.2911305597  MEMB      29              0.0000000000
      3189        29  SAPE      H18R           -7.0968243524      -24.4425561596        2.3543452247  MEMB      29              0.0000000000
      3190        29  SAPE      H18S           -6.2020060837      -25.7096912992        3.1997674708  MEMB      29              0.0000000000
      3191        29  SAPE      C219           -6.2669294264      -26.0009073547        1.0702719849  MEMB      29              0.0000000000
      3192        29  SAPE      H19R           -5.4049536693      -26.7035670451        1.0761052948  MEMB      29              0.0000000000
      3193        29  SAPE      H19S           -6.2218997644      -25.4332853379        0.1120235555  MEMB      29              0.0000000000
      3194        29  SAPE      C220           -7.5611916177      -26.8117096636        1.0817861400  MEMB      29              0.0000000000
      3195        29  SAPE      H20R           -7.7815661061      -27.2261526115        2.0861553818  MEMB      29              0.0000000000
      3196        29  SAPE      H20S           -7.5352936007      -27.6432596496        0.3462529055  MEMB      29              0.0000000000
      3197        29  SAPE      H20T           -8.3880517106      -26.1277465714        0.8261531291  MEMB      29              0.0000000000
      3198        29  SAPE      C33            -9.1803924077      -24.2114876344       11.4186431689  MEMB      29              0.0000000000
      3199        29  SAPE      H3X            -9.5741276249      -25.1192390938       11.7344240637  MEMB      29              0.0000000000
      3200        29  SAPE      H3Y            -8.1855469214      -24.0901135190       11.8258435171  MEMB      29              0.0000000000
      3201        29  SAPE      C34            -9.3822565255      -24.7322421800        9.8485621758  MEMB      29              0.0000000000
      3202        29  SAPE      H4X            -9.7554195003      -23.9147240027        9.3595634562  MEMB      29              0.0000000000
      3203        29  SAPE      H4Y           -10.3680032369      -24.9809706451        9.6562931861  MEMB      29              0.0000000000
      3204        29  SAPE      C35            -8.3434764502      -25.4484097153        8.7873320938  MEMB      29              0.0000000000
      3205        29  SAPE      H5X            -8.5096217198      -26.5093854142        8.9083321083  MEMB      29              0.0000000000
      3206        29  SAPE      H5Y            -7.2652537484      -25.3721287075        8.8272866533  MEMB      29              0.0000000000
      3207        29  SAPE      C36            -8.3508344734      -25.0611617258        7.2557179402  MEMB      29              0.0000000000
      3208        29  SAPE      H6X            -9.5017583435      -25.1225803023        7.4133426796  MEMB      29              0.0000000000
      3209        29  SAPE      H6Y            -8.0549904516      -25.8000715516        6.5989835114  MEMB      29              0.0000000000
      3210        29  SAPE      C37            -7.5457539691      -23.8249334888        6.2042691955  MEMB      29              0.0000000000
      3211        29  SAPE      H7X            -7.9683589225      -22.7228948011        6.0824062356  MEMB      29              0.0000000000
      3212        29  SAPE      H7Y            -7.7847035481      -24.2519844829        5.2897264986  MEMB      29              0.0000000000
      3213        29  SAPE      C38            -6.4948804891      -22.6856540536        6.1260964204  MEMB      29              0.0000000000
      3214        29  SAPE      H8X            -6.4554997054      -22.7731114328        5.0160759838  MEMB      29              0.0000000000
      3215        29  SAPE      H8Y            -5.9121171577      -23.3227890337        6.7496804157  MEMB      29              0.0000000000
      3216        29  SAPE      C39            -6.5249127612      -21.1620395641        6.6683372105  MEMB      29              0.0000000000
      3217        29  SAPE      H9X            -5.4907291160      -20.9681106554        6.4654258484  MEMB      29              0.0000000000
      3218        29  SAPE      H9Y            -6.8428710686      -20.8635569992        7.7059371730  MEMB      29              0.0000000000
      3219        29  SAPE      C310           -7.1366755589      -20.0010515377        6.0284436580  MEMB      29              0.0000000000
      3220        29  SAPE      H10X           -7.6795424285      -19.1747158151        6.3534618545  MEMB      29              0.0000000000
      3221        29  SAPE      H10Y           -8.1358426133      -20.4202279561        6.2083240731  MEMB      29              0.0000000000
      3222        29  SAPE      C311           -6.5756759171      -19.4890990717        4.7080186732  MEMB      29              0.0000000000
      3223        29  SAPE      H11X           -7.2690316873      -18.6836632769        4.3601809435  MEMB      29              0.0000000000
      3224        29  SAPE      H11Y           -6.5389204136      -20.1758790417        3.8497815421  MEMB      29              0.0000000000
      3225        29  SAPE      C312           -5.2401306161      -18.9904224795        4.9013046424  MEMB      29              0.0000000000
      3226        29  SAPE      H12X           -4.5951205811      -19.9007700848        4.9287496130  MEMB      29              0.0000000000
      3227        29  SAPE      H12Y           -5.3280790352      -18.4994438178        5.8932681894  MEMB      29              0.0000000000
      3228        29  SAPE      C313           -4.9902580066      -18.0274084838        3.7741156653  MEMB      29              0.0000000000
      3229        29  SAPE      H13X           -4.3745356585      -17.2592693568        4.2668976488  MEMB      29              0.0000000000
      3230        29  SAPE      H13Y           -5.9364893058      -17.5806561049        3.3716655992  MEMB      29              0.0000000000
      3231        29  SAPE      C314           -4.1646368652      -18.6425009766        2.6676116342  MEMB      29              0.0000000000
      3232        29  SAPE      H14X           -3.2716673271      -19.0894042078        3.1293719905  MEMB      29              0.0000000000
      3233        29  SAPE      H14Y           -3.9214825134      -17.8846844007        1.8835157034  MEMB      29              0.0000000000
      3234        29  SAPE      C315           -4.8155935632      -19.7721098177        1.9714105064  MEMB      29              0.0000000000
      3235        29  SAPE      H15X           -5.1444843059      -20.6018451177        2.6402704000  MEMB      29              0.0000000000
      3236        29  SAPE      H15Y           -4.0620328027      -20.2811702032        1.3261551359  MEMB      29              0.0000000000
      3237        29  SAPE      C316           -5.9321965111      -19.1466742552        1.1357500482  MEMB      29              0.0000000000
      3238        29  SAPE      H16X           -5.5730672074      -18.3410788882        0.5317032412  MEMB      29              0.0000000000
      3239        29  SAPE      H16Y           -6.8275017251      -18.6120370292        1.6445683421  MEMB      29              0.0000000000
      3240        29  SAPE      C317           -6.3768768265      -20.2657909295        0.1728199987  MEMB      29              0.0000000000
      3241        29  SAPE      H17X           -7.4703846080      -19.8934535785       -0.0555057690  MEMB      29              0.0000000000
      3242        29  SAPE      H17Y           -6.5806801581      -20.4283950383        1.2656994716  MEMB      29              0.0000000000
      3243        29  SAPE      C318           -5.6599400645      -21.8886186327       -0.8252282816  MEMB      29              0.0000000000
      3244        29  SAPE      H18X           -4.6835263399      -22.1767217557       -0.4535295835  MEMB      29              0.0000000000
      3245        29  SAPE      H18Y           -6.1200741440      -21.7100653984       -1.7547619709  MEMB      29              0.0000000000
      3246        29  SAPE      H18Z           -6.1083116214      -23.0269072211       -0.9650658868  MEMB      29              0.0000000000
      3247        30  CHL1      C3            -20.5128867600       10.1823610042       17.2688175704  MEMB      30              0.0000000000
      3248        30  CHL1      H3            -20.7531091025        9.1276697931       17.0055536348  MEMB      30              0.0000000000
      3249        30  CHL1      O3            -20.2897808247       10.2153556040       18.6752966251  MEMB      30              0.0000000000
      3250        30  CHL1      H3'           -21.1761810974       10.2855450547       19.0795269977  MEMB      30              0.0000000000
      3251        30  CHL1      C4            -19.2692212317       10.6088698188       16.4695340868  MEMB      30              0.0000000000
      3252        30  CHL1      H4A           -18.9567264122       11.6231866561       16.7843607788  MEMB      30              0.0000000000
      3253        30  CHL1      H4B           -18.4787716529        9.8861494784       16.7818996049  MEMB      30              0.0000000000
      3254        30  CHL1      C5            -19.5398431238       10.6382092626       14.9689286961  MEMB      30              0.0000000000
      3255        30  CHL1      C6            -18.8268286701        9.9369697159       14.0977698224  MEMB      30              0.0000000000
      3256        30  CHL1      H6            -17.9432038449        9.4270620733       14.4346252997  MEMB      30              0.0000000000
      3257        30  CHL1      C7            -19.0514376706        9.9095419318       12.6258955019  MEMB      30              0.0000000000
      3258        30  CHL1      H7A           -18.0759966360        9.9431860331       12.0948879304  MEMB      30              0.0000000000
      3259        30  CHL1      H7B           -19.5567395883        8.9412637565       12.3889974980  MEMB      30              0.0000000000
      3260        30  CHL1      C8            -19.9255447978       11.0580066607       12.1069500541  MEMB      30              0.0000000000
      3261        30  CHL1      H8            -19.3370835373       11.9966160950       12.1354738490  MEMB      30              0.0000000000
      3262        30  CHL1      C14           -20.3322219344       10.7972418812       10.6709054514  MEMB      30              0.0000000000
      3263        30  CHL1      H14           -20.8328167100        9.7967176388       10.6846072138  MEMB      30              0.0000000000
      3264        30  CHL1      C15           -19.2267524123       10.6828370410        9.6157842185  MEMB      30              0.0000000000
      3265        30  CHL1      H15A          -18.5356191714       11.5436785230        9.7519387145  MEMB      30              0.0000000000
      3266        30  CHL1      H15B          -18.6635076778        9.7349006983        9.6778727324  MEMB      30              0.0000000000
      3267        30  CHL1      C16           -19.9813777016       10.8085560589        8.2819878378  MEMB      30              0.0000000000
      3268        30  CHL1      H16A          -19.4221228247       11.4925766442        7.6094605501  MEMB      30              0.0000000000
      3269        30  CHL1      H16B          -20.1170309234        9.8145351068        7.8080046627  MEMB      30              0.0000000000
      3270        30  CHL1      C17           -21.3970016528       11.3513681981        8.6101491813  MEMB      30              0.0000000000
      3271        30  CHL1      H17           -22.0913964873       10.4803693431        8.6230932925  MEMB      30              0.0000000000
      3272        30  CHL1      C13           -21.2729643486       11.8394676389       10.0855842974  MEMB      30              0.0000000000
      3273        30  CHL1      C18           -20.6139882673       13.2317777229       10.0430986629  MEMB      30              0.0000000000
      3274        30  CHL1      H18A          -20.1573490911       13.6456345500       10.9663635936  MEMB      30              0.0000000000
      3275        30  CHL1      H18B          -19.8729759959       13.3220860951        9.2260959855  MEMB      30              0.0000000000
      3276        30  CHL1      H18C          -21.4984812768       13.8452153245        9.8163101416  MEMB      30              0.0000000000
      3277        30  CHL1      C12           -22.5608161650       11.8833488563       10.9215235684  MEMB      30              0.0000000000
      3278        30  CHL1      H12A          -23.2112238872       12.7003469887       10.5342613216  MEMB      30              0.0000000000
      3279        30  CHL1      H12B          -23.0622992278       10.9093896085       10.7593115566  MEMB      30              0.0000000000
      3280        30  CHL1      C11           -22.2583215317       12.1080238742       12.4230971199  MEMB      30              0.0000000000
      3281        30  CHL1      H11A          -21.9107292027       13.1578035560       12.4852881852  MEMB      30              0.0000000000
      3282        30  CHL1      H11B          -23.1868377004       12.0340613093       13.0319136099  MEMB      30              0.0000000000
      3283        30  CHL1      C9            -21.1467626737       11.1744103483       13.0092473368  MEMB      30              0.0000000000
      3284        30  CHL1      H9            -21.5717728665       10.1354843980       13.0226648310  MEMB      30              0.0000000000
      3285        30  CHL1      C10           -20.7232366023       11.4890702916       14.4783369331  MEMB      30              0.0000000000
      3286        30  CHL1      C19           -20.2277028530       12.9627246622       14.5840133568  MEMB      30              0.0000000000
      3287        30  CHL1      H19A          -19.3314034697       13.1615450821       13.9570784237  MEMB      30              0.0000000000
      3288        30  CHL1      H19B          -20.9783724713       13.7229568187       14.3089479636  MEMB      30              0.0000000000
      3289        30  CHL1      H19C          -19.9721357882       13.1580449946       15.6416296460  MEMB      30              0.0000000000
      3290        30  CHL1      C1            -21.9366502259       11.2353475200       15.4054180911  MEMB      30              0.0000000000
      3291        30  CHL1      H1A           -22.6501585933       12.0666346505       15.2370756903  MEMB      30              0.0000000000
      3292        30  CHL1      H1B           -22.4366155693       10.2944541582       15.0823047377  MEMB      30              0.0000000000
      3293        30  CHL1      C2            -21.6606863876       11.1316641248       16.9204550845  MEMB      30              0.0000000000
      3294        30  CHL1      H2A           -22.5934941745       10.7501443158       17.3773410127  MEMB      30              0.0000000000
      3295        30  CHL1      H2B           -21.4413361121       12.1402961950       17.3408601007  MEMB      30              0.0000000000
      3296        30  CHL1      C20           -21.9659499616       12.2244786248        7.4839349259  MEMB      30              0.0000000000
      3297        30  CHL1      H20           -21.3939664277       13.1831765001        7.4224734394  MEMB      30              0.0000000000
      3298        30  CHL1      C21           -23.4252075928       12.4949011404        7.8261440180  MEMB      30              0.0000000000
      3299        30  CHL1      H21A          -23.9930472821       12.9142575482        7.0120117808  MEMB      30              0.0000000000
      3300        30  CHL1      H21B          -23.3939607869       13.3204148208        8.5366309514  MEMB      30              0.0000000000
      3301        30  CHL1      H21C          -24.0697630267       11.6525405847        8.0955003267  MEMB      30              0.0000000000
      3302        30  CHL1      C22           -21.9424818368       11.5886495703        6.0725935030  MEMB      30              0.0000000000
      3303        30  CHL1      H22A          -21.3907287691       10.6362891414        6.0754400224  MEMB      30              0.0000000000
      3304        30  CHL1      H22B          -22.9858415440       11.3002488870        5.7931612088  MEMB      30              0.0000000000
      3305        30  CHL1      C23           -21.3414519599       12.5006571207        4.9735098513  MEMB      30              0.0000000000
      3306        30  CHL1      H23A          -21.8179068715       13.4998976161        4.8887249512  MEMB      30              0.0000000000
      3307        30  CHL1      H23B          -20.3202521433       12.7770513932        5.2634590684  MEMB      30              0.0000000000
      3308        30  CHL1      C24           -21.3748621508       11.7935980195        3.6066331848  MEMB      30              0.0000000000
      3309        30  CHL1      H24A          -20.5753600319       11.0244214854        3.5880221036  MEMB      30              0.0000000000
      3310        30  CHL1      H24B          -22.3278564557       11.2241763119        3.5301631198  MEMB      30              0.0000000000
      3311        30  CHL1      C25           -21.1791335069       12.7230932772        2.3830504296  MEMB      30              0.0000000000
      3312        30  CHL1      H25           -21.8272097323       13.6121314079        2.3326389422  MEMB      30              0.0000000000
      3313        30  CHL1      C26           -19.8178249446       13.3489151570        2.3627563929  MEMB      30              0.0000000000
      3314        30  CHL1      H26A          -19.8113328527       14.1359900631        1.5746505380  MEMB      30              0.0000000000
      3315        30  CHL1      H26B          -19.5668310817       13.7802027122        3.3539675648  MEMB      30              0.0000000000
      3316        30  CHL1      H26C          -19.1363123951       12.5240555831        2.0946405251  MEMB      30              0.0000000000
      3317        30  CHL1      C27           -21.4313395201       12.0213401819        1.0674207990  MEMB      30              0.0000000000
      3318        30  CHL1      H27A          -22.4880054027       11.6817844727        1.0029481603  MEMB      30              0.0000000000
      3319        30  CHL1      H27B          -21.2468944871       12.7539547319        0.2512219607  MEMB      30              0.0000000000
      3320        30  CHL1      H27C          -20.7158359463       11.1770053955        0.9904298051  MEMB      30              0.0000000000
      3321        31  SAPE      N              23.1546024168        3.4826799322       18.4780088007  MEMB      31              0.0000000000
      3322        31  SAPE      HN1            23.0988472273        4.4112119501       18.0048093019  MEMB      31              0.0000000000
      3323        31  SAPE      HN2            24.0784401239        3.0135683018       18.3615499225  MEMB      31              0.0000000000
      3324        31  SAPE      HN3            22.4487414404        2.8319228576       18.0755729768  MEMB      31              0.0000000000
      3325        31  SAPE      C12            22.9209418971        3.6957764785       19.9543208530  MEMB      31              0.0000000000
      3326        31  SAPE      H12A           21.8989493034        3.3290409704       20.1790715772  MEMB      31              0.0000000000
      3327        31  SAPE      H12B           23.0113680618        4.7905034775       20.1247584276  MEMB      31              0.0000000000
      3328        31  SAPE      C11            23.9387330311        2.9941926865       20.8720057951  MEMB      31              0.0000000000
      3329        31  SAPE      H11A           23.9046196485        3.4759200787       21.8725375135  MEMB      31              0.0000000000
      3330        31  SAPE      H11B           24.9803379554        3.1317985819       20.5050952070  MEMB      31              0.0000000000
      3331        31  SAPE      P              23.9482601516        0.4572285467       20.1390218529  MEMB      31              0.0000000000
      3332        31  SAPE      O13            24.5130945927       -0.6959447379       20.8734882267  MEMB      31              0.0000000000
      3333        31  SAPE      O14            22.7734380512        0.3776254600       19.2611857711  MEMB      31              0.0000000000
      3334        31  SAPE      O12            23.6075174105        1.6383372228       21.1143016401  MEMB      31              0.0000000000
      3335        31  SAPE      O11            25.0915165982        1.1213905642       19.2593209832  MEMB      31              0.0000000000
      3336        31  SAPE      C1             26.3776286400        0.5481208994       19.1829437745  MEMB      31              0.0000000000
      3337        31  SAPE      HA             26.8194635622        0.7621785119       20.1396744430  MEMB      31              0.0000000000
      3338        31  SAPE      HB             26.3077140214       -0.5621721725       19.1085770672  MEMB      31              0.0000000000
      3339        31  SAPE      C2             27.2072495436        1.2581455607       18.0667683123  MEMB      31              0.0000000000
      3340        31  SAPE      HS             27.6837215845        2.1606415270       18.5285227025  MEMB      31              0.0000000000
      3341        31  SAPE      O21            26.2561724368        1.4759127558       17.0049981104  MEMB      31              0.0000000000
      3342        31  SAPE      C21            26.4612936433        2.5089867857       16.2514933984  MEMB      31              0.0000000000
      3343        31  SAPE      O22            27.1062434424        3.4572313390       16.5739156071  MEMB      31              0.0000000000
      3344        31  SAPE      C22            25.7572383253        2.5936726068       14.9608133528  MEMB      31              0.0000000000
      3345        31  SAPE      H2R            25.4604740791        1.5902187541       14.6285865674  MEMB      31              0.0000000000
      3346        31  SAPE      H2S            24.8879228749        3.2262504206       15.2130249713  MEMB      31              0.0000000000
      3347        31  SAPE      C3             28.3846944931        0.5737320529       17.3827522718  MEMB      31              0.0000000000
      3348        31  SAPE      HX             29.3323899236        0.3287967536       17.8968580315  MEMB      31              0.0000000000
      3349        31  SAPE      HY             28.9986751219        1.1305405898       16.7419183605  MEMB      31              0.0000000000
      3350        31  SAPE      O31            27.8109556348       -0.5238590116       16.7189246140  MEMB      31              0.0000000000
      3351        31  SAPE      C31            28.6807117105       -1.1093477503       16.0539015922  MEMB      31              0.0000000000
      3352        31  SAPE      O32            29.8870286146       -1.1026831540       16.2624757759  MEMB      31              0.0000000000
      3353        31  SAPE      C32            27.9232909729       -1.5423794208       14.9054680947  MEMB      31              0.0000000000
      3354        31  SAPE      H2X            27.4458702387       -2.5025777562       15.0112719726  MEMB      31              0.0000000000
      3355        31  SAPE      H2Y            28.8359257595       -1.7674800920       14.5160559887  MEMB      31              0.0000000000
      3356        31  SAPE      C23            26.5749443766        3.4315582773       13.9417474047  MEMB      31              0.0000000000
      3357        31  SAPE      H3R            27.4126734759        2.7856676194       13.5891201067  MEMB      31              0.0000000000
      3358        31  SAPE      H3S            26.9951999784        4.3833390663       14.3660650479  MEMB      31              0.0000000000
      3359        31  SAPE      C24            25.7890183131        3.7945996102       12.6806777450  MEMB      31              0.0000000000
      3360        31  SAPE      H4R            25.3759739436        2.8301742710       12.3268070910  MEMB      31              0.0000000000
      3361        31  SAPE      H4S            26.5400574522        4.1182304245       11.9229823955  MEMB      31              0.0000000000
      3362        31  SAPE      C25            24.6618008115        4.7950850954       12.7819399862  MEMB      31              0.0000000000
      3363        31  SAPE      H5R            24.3961615916        5.2020124207       13.7699525333  MEMB      31              0.0000000000
      3364        31  SAPE      C26            23.9455494845        5.2185793239       11.7300203862  MEMB      31              0.0000000000
      3365        31  SAPE      H6R            23.0739256183        5.8596138399       11.9451102008  MEMB      31              0.0000000000
      3366        31  SAPE      C27            24.1262024121        4.7852940952       10.2893921082  MEMB      31              0.0000000000
      3367        31  SAPE      H7R            23.1140153243        4.7008750697        9.8505297474  MEMB      31              0.0000000000
      3368        31  SAPE      H7S            24.5268183800        3.7452082976       10.2568486050  MEMB      31              0.0000000000
      3369        31  SAPE      C28            24.9040689388        5.6830875566        9.3493550711  MEMB      31              0.0000000000
      3370        31  SAPE      H8R            24.4420693159        6.6621389335        9.1556562551  MEMB      31              0.0000000000
      3371        31  SAPE      C29            26.0480164255        5.3780177498        8.7116955903  MEMB      31              0.0000000000
      3372        31  SAPE      H9R            26.5170172167        6.0992114679        8.0151729716  MEMB      31              0.0000000000
      3373        31  SAPE      C210           26.7746666971        4.0687696486        8.8278830328  MEMB      31              0.0000000000
      3374        31  SAPE      H10R           26.2626059848        3.2250808745        8.3279240906  MEMB      31              0.0000000000
      3375        31  SAPE      H10S           27.0257718373        3.8548017021        9.8757537947  MEMB      31              0.0000000000
      3376        31  SAPE      C211           28.0773244657        4.1612790085        8.2049112923  MEMB      31              0.0000000000
      3377        31  SAPE      H11R           28.8785305725        4.2551700171        8.9465015899  MEMB      31              0.0000000000
      3378        31  SAPE      C212           28.2742455713        4.1289685242        6.8921682206  MEMB      31              0.0000000000
      3379        31  SAPE      H12R           29.1650383481        4.4658019602        6.3470199281  MEMB      31              0.0000000000
      3380        31  SAPE      C213           27.3206177437        4.0052844640        5.8960407992  MEMB      31              0.0000000000
      3381        31  SAPE      H13R           27.9450993773        4.4210486760        5.1690894847  MEMB      31              0.0000000000
      3382        31  SAPE      H13S           26.5587848052        4.7679840505        6.0166362750  MEMB      31              0.0000000000
      3383        31  SAPE      C214           27.0070371368        2.5969623404        5.5584971218  MEMB      31              0.0000000000
      3384        31  SAPE      H14R           27.8640595060        1.9229669340        5.6926852640  MEMB      31              0.0000000000
      3385        31  SAPE      C215           26.2544171747        2.3061795884        4.5045032223  MEMB      31              0.0000000000
      3386        31  SAPE      H15R           26.1258963441        1.2866658081        4.1732381554  MEMB      31              0.0000000000
      3387        31  SAPE      C216           25.6632342275        3.3100850342        3.5767179799  MEMB      31              0.0000000000
      3388        31  SAPE      H16R           25.5468438423        4.3043046088        4.0431738584  MEMB      31              0.0000000000
      3389        31  SAPE      H16S           24.8741219134        2.9740451401        4.0781540196  MEMB      31              0.0000000000
      3390        31  SAPE      C217           25.5773563228        3.3805845921        1.9260856036  MEMB      31              0.0000000000
      3391        31  SAPE      H17R           25.0674663324        4.3277757769        1.6088145189  MEMB      31              0.0000000000
      3392        31  SAPE      H17S           25.0809357442        2.4835299707        1.5299955972  MEMB      31              0.0000000000
      3393        31  SAPE      C218           26.7903565348        3.4215943062        0.9997115099  MEMB      31              0.0000000000
      3394        31  SAPE      H18R           27.4005373323        2.5051062510        1.1608516148  MEMB      31              0.0000000000
      3395        31  SAPE      H18S           27.3015001653        4.3598459407        1.2115787447  MEMB      31              0.0000000000
      3396        31  SAPE      C219           26.9886658414        4.0734074705       -0.2787858674  MEMB      31              0.0000000000
      3397        31  SAPE      H19R           28.0458050715        3.8914073903       -0.4746431405  MEMB      31              0.0000000000
      3398        31  SAPE      H19S           26.8921283704        5.1892183249       -0.3384691791  MEMB      31              0.0000000000
      3399        31  SAPE      C220           26.0383534656        3.3093326031       -1.0370172822  MEMB      31              0.0000000000
      3400        31  SAPE      H20R           26.2693584574        2.2101286216       -0.9860409360  MEMB      31              0.0000000000
      3401        31  SAPE      H20S           26.1292008587        3.7384426639       -2.0237744994  MEMB      31              0.0000000000
      3402        31  SAPE      H20T           25.0495156341        3.5573988486       -0.6210355487  MEMB      31              0.0000000000
      3403        31  SAPE      C33            27.5425752611       -0.4477111221       13.8934630436  MEMB      31              0.0000000000
      3404        31  SAPE      H3X            28.4880751292        0.1564580062       13.6896129472  MEMB      31              0.0000000000
      3405        31  SAPE      H3Y            26.6669740454       -0.0198208118       14.3290279744  MEMB      31              0.0000000000
      3406        31  SAPE      C34            27.0055768211       -0.7952180893       12.5332533508  MEMB      31              0.0000000000
      3407        31  SAPE      H4X            26.2612084038       -1.5760324105       12.3697312235  MEMB      31              0.0000000000
      3408        31  SAPE      H4Y            28.0559128564       -0.9646973774       12.3033338342  MEMB      31              0.0000000000
      3409        31  SAPE      C35            26.4287821531        0.0880307372       11.4393968610  MEMB      31              0.0000000000
      3410        31  SAPE      H5X            27.2159934612        0.7484743391       11.0215254052  MEMB      31              0.0000000000
      3411        31  SAPE      H5Y            25.6259243701        0.5687663934       12.0061246938  MEMB      31              0.0000000000
      3412        31  SAPE      C36            25.7244308212       -0.6541093567       10.2515664318  MEMB      31              0.0000000000
      3413        31  SAPE      H6X            25.1586836658       -1.5691207020       10.5207640467  MEMB      31              0.0000000000
      3414        31  SAPE      H6Y            26.3699280999       -0.9713314777        9.4391176902  MEMB      31              0.0000000000
      3415        31  SAPE      C37            24.9212793250        0.3405967015        9.4812568067  MEMB      31              0.0000000000
      3416        31  SAPE      H7X            25.6301238195        1.0387045483        8.9596933332  MEMB      31              0.0000000000
      3417        31  SAPE      H7Y            24.3022204207        0.8813559970       10.2189083149  MEMB      31              0.0000000000
      3418        31  SAPE      C38            24.0511559124       -0.2802884827        8.4287212601  MEMB      31              0.0000000000
      3419        31  SAPE      H8X            23.2649679907       -0.9335952952        8.8540012515  MEMB      31              0.0000000000
      3420        31  SAPE      H8Y            24.6765111206       -0.9221384346        7.7747110685  MEMB      31              0.0000000000
      3421        31  SAPE      C39            23.4349731863        0.8822893883        7.6861332230  MEMB      31              0.0000000000
      3422        31  SAPE      H9X            24.1853602586        1.5905841231        7.3065419315  MEMB      31              0.0000000000
      3423        31  SAPE      H9Y            22.7147311888        1.4366135745        8.3080383646  MEMB      31              0.0000000000
      3424        31  SAPE      C310           22.6310158884        0.4846976182        6.5261500302  MEMB      31              0.0000000000
      3425        31  SAPE      H10X           22.3180007787        1.3981844230        6.0256587744  MEMB      31              0.0000000000
      3426        31  SAPE      H10Y           21.7652692540        0.0264100722        7.0090145746  MEMB      31              0.0000000000
      3427        31  SAPE      C311           23.3775709501       -0.4083978366        5.5911686307  MEMB      31              0.0000000000
      3428        31  SAPE      H11X           23.5185101356       -1.3028429568        6.2193862834  MEMB      31              0.0000000000
      3429        31  SAPE      H11Y           24.2923330131        0.0246677674        5.1726900197  MEMB      31              0.0000000000
      3430        31  SAPE      C312           22.6059736119       -1.0069017520        4.4782208727  MEMB      31              0.0000000000
      3431        31  SAPE      H12X           21.8661582376       -0.4616568468        4.2466260033  MEMB      31              0.0000000000
      3432        31  SAPE      H12Y           22.1935107637       -2.0446334620        4.6276547674  MEMB      31              0.0000000000
      3433        31  SAPE      C313           23.0254100252       -1.0694604197        3.1135607230  MEMB      31              0.0000000000
      3434        31  SAPE      H13X           22.4561145084       -1.9413246827        2.6990427840  MEMB      31              0.0000000000
      3435        31  SAPE      H13Y           23.8838016343       -1.3380568231        3.3842976287  MEMB      31              0.0000000000
      3436        31  SAPE      C314           23.8271805576       -0.0206536193        2.3172721384  MEMB      31              0.0000000000
      3437        31  SAPE      H14X           24.4951668834        0.5674384819        2.9400323729  MEMB      31              0.0000000000
      3438        31  SAPE      H14Y           23.4414660161        0.8829926217        2.3632204907  MEMB      31              0.0000000000
      3439        31  SAPE      C315           23.8135067399       -0.1588849722        0.7464088781  MEMB      31              0.0000000000
      3440        31  SAPE      H15X           23.7998761734        0.6642387333       -0.0482570060  MEMB      31              0.0000000000
      3441        31  SAPE      H15Y           23.1197252593       -0.9584963264        0.3812668734  MEMB      31              0.0000000000
      3442        31  SAPE      C316           25.0297363252       -0.1721848405        0.2222298107  MEMB      31              0.0000000000
      3443        31  SAPE      H16X           24.9219874905       -0.6816293315       -0.7380535571  MEMB      31              0.0000000000
      3444        31  SAPE      H16Y           24.9274970586       -0.9296194439        0.9602021793  MEMB      31              0.0000000000
      3445        31  SAPE      C317           26.1204097010        0.0882483526        1.0956805452  MEMB      31              0.0000000000
      3446        31  SAPE      H17X           26.0795436573        0.0166447892        2.2028420089  MEMB      31              0.0000000000
      3447        31  SAPE      H17Y           26.2996766654        1.0874096401        0.7608495162  MEMB      31              0.0000000000
      3448        31  SAPE      C318           27.1243247026       -0.8326778519        0.7434649594  MEMB      31              0.0000000000
      3449        31  SAPE      H18X           27.3252433936       -1.7269458982        1.3913278338  MEMB      31              0.0000000000
      3450        31  SAPE      H18Y           27.7826576594       -0.0736199226        0.7490900185  MEMB      31              0.0000000000
      3451        31  SAPE      H18Z           27.3783806529       -1.0382493964       -0.2567495492  MEMB      31              0.0000000000
      3452        32  SLPC      N              23.3001866741       -8.1959174817       18.5531704234  MEMB      32              0.0000000000
      3453        32  SLPC      C13            23.2950141307       -9.0552114844       19.7789321305  MEMB      32              0.0000000000
      3454        32  SLPC      H13A           24.2342563497       -9.5846463948       19.8177070656  MEMB      32              0.0000000000
      3455        32  SLPC      H13B           23.1814305659       -8.4034206607       20.6390264521  MEMB      32              0.0000000000
      3456        32  SLPC      H13C           22.5090880038       -9.8057766490       19.8583127529  MEMB      32              0.0000000000
      3457        32  SLPC      C14            21.9931577028       -7.8347244948       18.1841438814  MEMB      32              0.0000000000
      3458        32  SLPC      H14A           21.3384713211       -7.4089014738       18.9366532579  MEMB      32              0.0000000000
      3459        32  SLPC      H14B           21.7409891544       -7.4653348889       17.1858505427  MEMB      32              0.0000000000
      3460        32  SLPC      H14C           21.6475655419       -8.8562955867       18.0081263562  MEMB      32              0.0000000000
      3461        32  SLPC      C15            23.7416499434       -8.8774940650       17.3563442711  MEMB      32              0.0000000000
      3462        32  SLPC      H15A           24.7515120722       -9.2382047100       17.4809086088  MEMB      32              0.0000000000
      3463        32  SLPC      H15B           23.1361027592       -9.7695141433       17.2027471990  MEMB      32              0.0000000000
      3464        32  SLPC      H15C           23.6232237230       -8.3318954327       16.4272693869  MEMB      32              0.0000000000
      3465        32  SLPC      C12            24.1073116352       -7.0088477244       18.7275141447  MEMB      32              0.0000000000
      3466        32  SLPC      H12A           25.1012157888       -7.3262168864       18.4563937814  MEMB      32              0.0000000000
      3467        32  SLPC      H12B           24.0052015143       -6.7348105477       19.7594692455  MEMB      32              0.0000000000
      3468        32  SLPC      C11            23.7322941923       -5.8364712507       17.8185637094  MEMB      32              0.0000000000
      3469        32  SLPC      H11A           24.4572745465       -5.0310256839       18.0532699750  MEMB      32              0.0000000000
      3470        32  SLPC      H11B           22.7046114682       -5.4587436555       18.0481949350  MEMB      32              0.0000000000
      3471        32  SLPC      P              23.3912757995       -5.2241749517       15.3266131596  MEMB      32              0.0000000000
      3472        32  SLPC      O13            22.4342157686       -5.9310922793       14.4559082731  MEMB      32              0.0000000000
      3473        32  SLPC      O14            23.0220656690       -3.9330721141       15.9219853687  MEMB      32              0.0000000000
      3474        32  SLPC      O12            23.8509100924       -6.2239620654       16.4557130482  MEMB      32              0.0000000000
      3475        32  SLPC      O11            24.7288777222       -5.0481121405       14.6062540364  MEMB      32              0.0000000000
      3476        32  SLPC      C1             25.8212227005       -4.4428266744       15.2551536168  MEMB      32              0.0000000000
      3477        32  SLPC      HA             25.7258734263       -3.3426207693       15.0584982597  MEMB      32              0.0000000000
      3478        32  SLPC      HB             25.9143772699       -4.4743177978       16.3615235667  MEMB      32              0.0000000000
      3479        32  SLPC      C2             27.0701194476       -5.1110665913       14.6052751326  MEMB      32              0.0000000000
      3480        32  SLPC      HS             27.7970920630       -4.3499186001       14.6342738107  MEMB      32              0.0000000000
      3481        32  SLPC      O21            26.9120261316       -5.5456845770       13.2308186540  MEMB      32              0.0000000000
      3482        32  SLPC      C21            26.6508060671       -4.4693623704       12.5882106322  MEMB      32              0.0000000000
      3483        32  SLPC      O22            26.6856273782       -3.3782910392       13.0779586115  MEMB      32              0.0000000000
      3484        32  SLPC      C22            26.3339345446       -4.6071131835       11.1615547099  MEMB      32              0.0000000000
      3485        32  SLPC      H2R            25.8124112188       -5.5142564094       10.9843314711  MEMB      32              0.0000000000
      3486        32  SLPC      H2S            25.7745829006       -3.6148019042       10.9859626607  MEMB      32              0.0000000000
      3487        32  SLPC      C3             27.6189832704       -6.3121201457       15.3633997620  MEMB      32              0.0000000000
      3488        32  SLPC      HX             27.7936169154       -5.9642398683       16.3926829447  MEMB      32              0.0000000000
      3489        32  SLPC      HY             28.5939793184       -6.6834303649       14.9633706614  MEMB      32              0.0000000000
      3490        32  SLPC      O31            26.6415157914       -7.3187986673       15.4334031472  MEMB      32              0.0000000000
      3491        32  SLPC      C31            26.4855111034       -7.9846084813       14.3428724092  MEMB      32              0.0000000000
      3492        32  SLPC      O32            27.2127070661       -8.0419664802       13.3609324048  MEMB      32              0.0000000000
      3493        32  SLPC      C32            25.3154497599       -8.7917852418       14.5784469383  MEMB      32              0.0000000000
      3494        32  SLPC      H2X            24.3633007159       -8.2454094617       14.7532571172  MEMB      32              0.0000000000
      3495        32  SLPC      H2Y            25.5349590064       -9.5278579602       15.4044264922  MEMB      32              0.0000000000
      3496        32  SLPC      C23            27.4689573942       -4.6564152060       10.1388425506  MEMB      32              0.0000000000
      3497        32  SLPC      H3R            28.3418494867       -4.3736272585       10.6983504155  MEMB      32              0.0000000000
      3498        32  SLPC      H3S            27.0010172559       -3.8459147968        9.5224576093  MEMB      32              0.0000000000
      3499        32  SLPC      C24            28.4422799469       -5.7605847765        9.5748073176  MEMB      32              0.0000000000
      3500        32  SLPC      H4R            27.6834262578       -6.2221599222        8.9576906945  MEMB      32              0.0000000000
      3501        32  SLPC      H4S            28.9332150280       -6.1893555465       10.5008374162  MEMB      32              0.0000000000
      3502        32  SLPC      C25            29.6707480086       -5.6600254847        8.5338053115  MEMB      32              0.0000000000
      3503        32  SLPC      H5R            30.3523202942       -6.5005033107        8.4864535403  MEMB      32              0.0000000000
      3504        32  SLPC      H5S            30.4782395312       -5.0754756134        9.0439625134  MEMB      32              0.0000000000
      3505        32  SLPC      C26            29.4312261948       -5.3330913404        6.9930452972  MEMB      32              0.0000000000
      3506        32  SLPC      H6R            28.6627548295       -4.5733493115        6.8694647076  MEMB      32              0.0000000000
      3507        32  SLPC      H6S            28.5901012527       -5.7670690054        6.4324817272  MEMB      32              0.0000000000
      3508        32  SLPC      C27            30.8193907212       -4.9887223891        6.2128639506  MEMB      32              0.0000000000
      3509        32  SLPC      H7R            31.4695622283       -5.7794513173        6.4544293310  MEMB      32              0.0000000000
      3510        32  SLPC      H7S            31.4846505627       -4.0562744889        6.3581228830  MEMB      32              0.0000000000
      3511        32  SLPC      C28            30.6541700853       -5.0669176974        4.7665238111  MEMB      32              0.0000000000
      3512        32  SLPC      H8R            29.7207263496       -4.5468746050        5.0295940088  MEMB      32              0.0000000000
      3513        32  SLPC      H8S            29.7302570161       -5.4233254285        4.3326561917  MEMB      32              0.0000000000
      3514        32  SLPC      C29            31.6901906234       -4.4186666429        3.8117760040  MEMB      32              0.0000000000
      3515        32  SLPC      H9R            32.1735866072       -3.4216771592        4.0028708861  MEMB      32              0.0000000000
      3516        32  SLPC      C210           31.6511872380       -4.7263411058        2.5305788231  MEMB      32              0.0000000000
      3517        32  SLPC      H10R           32.3945658573       -4.2779155595        1.8829169510  MEMB      32              0.0000000000
      3518        32  SLPC      C211           30.6922182121       -5.6688440445        1.8915983664  MEMB      32              0.0000000000
      3519        32  SLPC      H11R           30.8211001043       -5.6194836184        0.7961359972  MEMB      32              0.0000000000
      3520        32  SLPC      H11S           29.6835272889       -5.2543526721        2.0264149016  MEMB      32              0.0000000000
      3521        32  SLPC      C212           30.9494021503       -7.0780375718        2.4179512414  MEMB      32              0.0000000000
      3522        32  SLPC      H12R           31.9739281469       -7.4054142816        2.2994312988  MEMB      32              0.0000000000
      3523        32  SLPC      C213           30.0977680532       -8.0336550643        2.8329592252  MEMB      32              0.0000000000
      3524        32  SLPC      H13R           30.3809000853       -9.0129826064        3.1889299906  MEMB      32              0.0000000000
      3525        32  SLPC      C214           28.6688246193       -7.9210117419        2.8589247671  MEMB      32              0.0000000000
      3526        32  SLPC      H14R           28.6237652797       -6.8742684443        3.0739139481  MEMB      32              0.0000000000
      3527        32  SLPC      H14S           28.0613423040       -8.2732102199        3.7172821479  MEMB      32              0.0000000000
      3528        32  SLPC      C215           28.2957966436       -8.4940996272        1.4796290698  MEMB      32              0.0000000000
      3529        32  SLPC      H15R           27.2234586233       -8.6816746604        1.6949815263  MEMB      32              0.0000000000
      3530        32  SLPC      H15S           28.1927443372       -9.5458410362        1.2385040320  MEMB      32              0.0000000000
      3531        32  SLPC      C216           28.7757005464       -7.6401386496        0.1911872140  MEMB      32              0.0000000000
      3532        32  SLPC      H16R           29.7879192017       -7.5494420225       -0.0984281989  MEMB      32              0.0000000000
      3533        32  SLPC      H16S           28.4349766768       -6.5488002570        0.2390894961  MEMB      32              0.0000000000
      3534        32  SLPC      C217           28.1149280452       -7.9568836235       -1.1584327913  MEMB      32              0.0000000000
      3535        32  SLPC      H17R           27.0845825046       -8.4014283284       -1.0114044742  MEMB      32              0.0000000000
      3536        32  SLPC      H17S           28.1938404581       -8.9921149328       -1.4757448888  MEMB      32              0.0000000000
      3537        32  SLPC      C218           28.1411028764       -6.5784599132       -1.9978778455  MEMB      32              0.0000000000
      3538        32  SLPC      H18R           27.4938514296       -5.7374804303       -1.5884652997  MEMB      32              0.0000000000
      3539        32  SLPC      H18S           27.6964826467       -6.8952544117       -2.9768386399  MEMB      32              0.0000000000
      3540        32  SLPC      H18T           28.6484970027       -6.0424673869       -2.7438506651  MEMB      32              0.0000000000
      3541        32  SLPC      C33            25.1480426960       -9.4177370279       13.2565737395  MEMB      32              0.0000000000
      3542        32  SLPC      H3X            24.5781530589      -10.0377070150       13.9049094238  MEMB      32              0.0000000000
      3543        32  SLPC      H3Y            25.9848651602      -10.0220169675       12.8203488801  MEMB      32              0.0000000000
      3544        32  SLPC      C34            23.8965326912       -9.1400173088       12.4302532170  MEMB      32              0.0000000000
      3545        32  SLPC      H4X            22.9750994035       -9.2420356983       13.0620096258  MEMB      32              0.0000000000
      3546        32  SLPC      H4Y            23.7817578920       -9.8682810131       11.5838228374  MEMB      32              0.0000000000
      3547        32  SLPC      C35            24.1043946712       -7.9069141466       11.7218470608  MEMB      32              0.0000000000
      3548        32  SLPC      H5X            25.1654622221       -8.0247056710       11.3800331375  MEMB      32              0.0000000000
      3549        32  SLPC      H5Y            23.9859960481       -7.1009690605       12.4668640648  MEMB      32              0.0000000000
      3550        32  SLPC      C36            23.2068003882       -7.8361987342       10.5211153518  MEMB      32              0.0000000000
      3551        32  SLPC      H6X            22.4531930109       -7.0483817323       10.7135904242  MEMB      32              0.0000000000
      3552        32  SLPC      H6Y            22.6750735395       -8.8053767251       10.3511796572  MEMB      32              0.0000000000
      3553        32  SLPC      C37            24.0858680942       -7.5590016075        9.3179095201  MEMB      32              0.0000000000
      3554        32  SLPC      H7X            24.7782598024       -8.4236019939        9.1667939954  MEMB      32              0.0000000000
      3555        32  SLPC      H7Y            24.7337791483       -6.6793971852        9.5320693270  MEMB      32              0.0000000000
      3556        32  SLPC      C38            23.2555249476       -7.3258426459        8.0709116691  MEMB      32              0.0000000000
      3557        32  SLPC      H8X            22.5778778138       -6.4542795383        8.2163858983  MEMB      32              0.0000000000
      3558        32  SLPC      H8Y            22.6002155454       -8.2076359513        7.9100704803  MEMB      32              0.0000000000
      3559        32  SLPC      C39            24.1943695983       -7.0619517663        6.9038165794  MEMB      32              0.0000000000
      3560        32  SLPC      H9X            23.7339520016       -7.3749962165        5.9412670002  MEMB      32              0.0000000000
      3561        32  SLPC      H9Y            25.1257875268       -7.6641251898        7.0325810866  MEMB      32              0.0000000000
      3562        32  SLPC      C310           24.5609222226       -5.5778296958        6.8636547337  MEMB      32              0.0000000000
      3563        32  SLPC      H10X           25.0703895802       -5.2692572069        7.8076784591  MEMB      32              0.0000000000
      3564        32  SLPC      H10Y           23.6313156821       -4.9677679943        6.7912286192  MEMB      32              0.0000000000
      3565        32  SLPC      C311           25.4823682901       -5.3039732496        5.6849276287  MEMB      32              0.0000000000
      3566        32  SLPC      H11X           24.9122648992       -5.4354488204        4.7350723866  MEMB      32              0.0000000000
      3567        32  SLPC      H11Y           26.3040652239       -6.0447338732        5.6801398309  MEMB      32              0.0000000000
      3568        32  SLPC      C312           26.1938505033       -3.9646971286        5.7880119808  MEMB      32              0.0000000000
      3569        32  SLPC      H12X           26.8499739765       -3.8465949391        4.8941058466  MEMB      32              0.0000000000
      3570        32  SLPC      H12Y           26.7363249428       -3.8386785288        6.7281824822  MEMB      32              0.0000000000
      3571        32  SLPC      C313           25.2763241289       -2.8451023116        5.7560099890  MEMB      32              0.0000000000
      3572        32  SLPC      H13X           25.7518445163       -1.8283499064        5.8151030943  MEMB      32              0.0000000000
      3573        32  SLPC      H13Y           24.5413718929       -2.9136456072        6.6120683920  MEMB      32              0.0000000000
      3574        32  SLPC      C314           24.6718780027       -3.1471655908        4.4028052524  MEMB      32              0.0000000000
      3575        32  SLPC      H14X           23.9770455455       -2.5405051527        4.8241519368  MEMB      32              0.0000000000
      3576        32  SLPC      H14Y           23.7533292039       -3.7097806219        4.1879849402  MEMB      32              0.0000000000
      3577        32  SLPC      C315           25.4226513047       -2.6844668834        3.1117944197  MEMB      32              0.0000000000
      3578        32  SLPC      H15X           26.3857656596       -3.1238500106        3.1108301148  MEMB      32              0.0000000000
      3579        32  SLPC      H15Y           25.6380805775       -1.5788339983        3.2772531606  MEMB      32              0.0000000000
      3580        32  SLPC      C316           24.5414954420       -3.0303920556        1.8273183775  MEMB      32              0.0000000000
      3581        32  SLPC      H16X           23.7839530723       -2.3364015930        1.5318025455  MEMB      32              0.0000000000
      3582        32  SLPC      H16Y           23.7228347773       -3.7217959121        1.9810073200  MEMB      32              0.0000000000
      3583        32  SLPC      C317           25.0120022691       -2.9725804226        0.3942604379  MEMB      32              0.0000000000
      3584        32  SLPC      H17X           25.6839373516       -2.2526069067        0.0902874275  MEMB      32              0.0000000000
      3585        32  SLPC      H17Y           24.2612112987       -2.7109221020       -0.3604011072  MEMB      32              0.0000000000
      3586        32  SLPC      C318           26.0850813113       -3.7404732333        0.1120858426  MEMB      32              0.0000000000
      3587        32  SLPC      H18X           26.4384167201       -3.7428440430       -0.9249931568  MEMB      32              0.0000000000
      3588        32  SLPC      H18Y           25.3434009862       -4.5178373796        0.3986017700  MEMB      32              0.0000000000
      3589        32  SLPC      H18Z           26.9252182435       -3.5433593353        0.8188841583  MEMB      32              0.0000000000
      3590        33  CHL1      C3              8.5394879139      -22.8387120746       17.3184107289  MEMB      33              0.0000000000
      3591        33  CHL1      H3              7.6094214442      -23.4499535560       17.2809020427  MEMB      33              0.0000000000
      3592        33  CHL1      O3              8.8879590187      -22.7266961107       18.6813838829  MEMB      33              0.0000000000
      3593        33  CHL1      H3'             8.9610756195      -23.6626818837       18.9563542923  MEMB      33              0.0000000000
      3594        33  CHL1      C4              9.6427054928      -23.6003614722       16.5630771931  MEMB      33              0.0000000000
      3595        33  CHL1      H4A            10.6157145652      -23.0791844954       16.6789380617  MEMB      33              0.0000000000
      3596        33  CHL1      H4B             9.7839448570      -24.5753976767       17.0673678251  MEMB      33              0.0000000000
      3597        33  CHL1      C5              9.2682674998      -23.7309405777       15.1010144832  MEMB      33              0.0000000000
      3598        33  CHL1      C6              9.1010818312      -24.9094057760       14.4745005395  MEMB      33              0.0000000000
      3599        33  CHL1      H6              9.2410073554      -25.8733908298       14.9932422655  MEMB      33              0.0000000000
      3600        33  CHL1      C7              8.8199930861      -24.9787146015       13.0054959070  MEMB      33              0.0000000000
      3601        33  CHL1      H7A             9.4037687159      -25.8152124786       12.5747381720  MEMB      33              0.0000000000
      3602        33  CHL1      H7B             7.7366051374      -25.1555183103       12.8108393146  MEMB      33              0.0000000000
      3603        33  CHL1      C8              9.1718534934      -23.6694309580       12.2529764309  MEMB      33              0.0000000000
      3604        33  CHL1      H8             10.2781033354      -23.5460489913       12.2341454628  MEMB      33              0.0000000000
      3605        33  CHL1      C14             8.6365108118      -23.7718952886       10.8401109081  MEMB      33              0.0000000000
      3606        33  CHL1      H14             7.5283231106      -23.8565169577       10.9866028106  MEMB      33              0.0000000000
      3607        33  CHL1      C15             9.0539915064      -24.9924273182        9.9987172742  MEMB      33              0.0000000000
      3608        33  CHL1      H15A           10.1590610695      -25.0784713623       10.0241557603  MEMB      33              0.0000000000
      3609        33  CHL1      H15B            8.6201278055      -25.9587005115       10.3178763094  MEMB      33              0.0000000000
      3610        33  CHL1      C16             8.6223916896      -24.6141991358        8.5812181583  MEMB      33              0.0000000000
      3611        33  CHL1      H16A            9.4783420865      -24.7545650479        7.8919892143  MEMB      33              0.0000000000
      3612        33  CHL1      H16B            7.7704017631      -25.2283254972        8.2264850546  MEMB      33              0.0000000000
      3613        33  CHL1      C17             8.1890623384      -23.1189502763        8.6420567458  MEMB      33              0.0000000000
      3614        33  CHL1      H17             7.0959446499      -23.1652763946        8.8541348918  MEMB      33              0.0000000000
      3615        33  CHL1      C13             8.8177856689      -22.5516440588        9.9394894630  MEMB      33              0.0000000000
      3616        33  CHL1      C18            10.3146202099      -22.2527764955        9.6564248144  MEMB      33              0.0000000000
      3617        33  CHL1      H18A           10.7963912764      -23.0983565633        9.1255902939  MEMB      33              0.0000000000
      3618        33  CHL1      H18B           10.4190849296      -21.3598393769        9.0043938615  MEMB      33              0.0000000000
      3619        33  CHL1      H18C           10.8650077792      -22.0654981479       10.6002310101  MEMB      33              0.0000000000
      3620        33  CHL1      C12             8.0959970514      -21.3822377149       10.6452507375  MEMB      33              0.0000000000
      3621        33  CHL1      H12A            8.2889711094      -20.4308198364       10.1122011630  MEMB      33              0.0000000000
      3622        33  CHL1      H12B            7.0034304708      -21.5985679573       10.6701249710  MEMB      33              0.0000000000
      3623        33  CHL1      C11             8.5951993968      -21.1839726077       12.0922769562  MEMB      33              0.0000000000
      3624        33  CHL1      H11A            9.6566434636      -20.8799828529       12.0034647270  MEMB      33              0.0000000000
      3625        33  CHL1      H11B            8.0166691237      -20.3509717619       12.5531057570  MEMB      33              0.0000000000
      3626        33  CHL1      C9              8.5174703242      -22.4788993969       12.9512003895  MEMB      33              0.0000000000
      3627        33  CHL1      H9              7.4205457158      -22.6921452315       13.0042083947  MEMB      33              0.0000000000
      3628        33  CHL1      C10             9.0035816864      -22.3647299538       14.4155572548  MEMB      33              0.0000000000
      3629        33  CHL1      C19            10.2785203887      -21.4890447387       14.4393917867  MEMB      33              0.0000000000
      3630        33  CHL1      H19A           11.0093268383      -21.8216581966       13.6744527865  MEMB      33              0.0000000000
      3631        33  CHL1      H19B            9.9737544421      -20.4438828550       14.2356604300  MEMB      33              0.0000000000
      3632        33  CHL1      H19C           10.7629807221      -21.4675730652       15.4343795084  MEMB      33              0.0000000000
      3633        33  CHL1      C1              7.8952229068      -21.6437726888       15.2237604109  MEMB      33              0.0000000000
      3634        33  CHL1      H1A             7.6672482875      -20.6624402785       14.7583888374  MEMB      33              0.0000000000
      3635        33  CHL1      H1B             6.9665064915      -22.2579558044       15.1756483734  MEMB      33              0.0000000000
      3636        33  CHL1      C2              8.2666987345      -21.4601897669       16.7001151161  MEMB      33              0.0000000000
      3637        33  CHL1      H2A             7.4332160327      -20.9423071105       17.2145364455  MEMB      33              0.0000000000
      3638        33  CHL1      H2B             9.1652548223      -20.8169204490       16.8059301943  MEMB      33              0.0000000000
      3639        33  CHL1      C20             8.3867404332      -22.3947691622        7.3030814432  MEMB      33              0.0000000000
      3640        33  CHL1      H20             9.4633851750      -22.2662418923        7.0730662608  MEMB      33              0.0000000000
      3641        33  CHL1      C21             7.6634571581      -21.0288315771        7.3136909213  MEMB      33              0.0000000000
      3642        33  CHL1      H21A            7.2476002249      -20.7836679876        6.3146820412  MEMB      33              0.0000000000
      3643        33  CHL1      H21B            8.3769155235      -20.2316208155        7.5952232488  MEMB      33              0.0000000000
      3644        33  CHL1      H21C            6.8003692725      -21.0354947256        8.0089647173  MEMB      33              0.0000000000
      3645        33  CHL1      C22             7.9128896675      -23.1838945716        6.0827512941  MEMB      33              0.0000000000
      3646        33  CHL1      H22A            8.1090897383      -24.2659632777        6.0952832809  MEMB      33              0.0000000000
      3647        33  CHL1      H22B            6.8276722756      -23.0658725790        6.1390273299  MEMB      33              0.0000000000
      3648        33  CHL1      C23             8.4956343466      -22.6308499171        4.7689218503  MEMB      33              0.0000000000
      3649        33  CHL1      H23A            7.8902109528      -21.7177207258        4.5433886591  MEMB      33              0.0000000000
      3650        33  CHL1      H23B            9.5059547635      -22.2514759272        4.9251545066  MEMB      33              0.0000000000
      3651        33  CHL1      C24             8.4510148072      -23.6371330578        3.5855055269  MEMB      33              0.0000000000
      3652        33  CHL1      H24A            7.6904889848      -24.4197634596        3.8095985932  MEMB      33              0.0000000000
      3653        33  CHL1      H24B            8.1483337241      -23.1332727481        2.6296135813  MEMB      33              0.0000000000
      3654        33  CHL1      C25             9.5872295842      -24.5345704543        3.3508026541  MEMB      33              0.0000000000
      3655        33  CHL1      H25             9.8808201700      -24.9888411027        4.3182230735  MEMB      33              0.0000000000
      3656        33  CHL1      C26             9.1319676611      -25.6747759691        2.5001329584  MEMB      33              0.0000000000
      3657        33  CHL1      H26A            8.3679639280      -26.3485500047        2.9400766150  MEMB      33              0.0000000000
      3658        33  CHL1      H26B            8.7800543335      -25.3064159392        1.5025023072  MEMB      33              0.0000000000
      3659        33  CHL1      H26C           10.0835077924      -26.2423451982        2.3859626331  MEMB      33              0.0000000000
      3660        33  CHL1      C27            10.6894646654      -23.7875422278        2.6266206375  MEMB      33              0.0000000000
      3661        33  CHL1      H27A           10.2893435437      -23.2222960291        1.7513076162  MEMB      33              0.0000000000
      3662        33  CHL1      H27B           11.1390561463      -23.0646094278        3.3265545156  MEMB      33              0.0000000000
      3663        33  CHL1      H27C           11.4519408847      -24.5098938677        2.2791047755  MEMB      33              0.0000000000
      3664        34  SAPE      N              13.4487084513      -18.0482564102       18.7766655725  MEMB      34              0.0000000000
      3665        34  SAPE      HN1            12.6441812022      -17.5740379921       18.3147450757  MEMB      34              0.0000000000
      3666        34  SAPE      HN2            13.9546651438      -18.6692538045       18.1105940133  MEMB      34              0.0000000000
      3667        34  SAPE      HN3            13.1309528503      -18.6390479396       19.5748434008  MEMB      34              0.0000000000
      3668        34  SAPE      C12            14.4629879850      -17.0896212786       19.3516433510  MEMB      34              0.0000000000
      3669        34  SAPE      H12A           14.1580199390      -16.9106441076       20.4077485276  MEMB      34              0.0000000000
      3670        34  SAPE      H12B           14.4365673672      -16.1381120859       18.7913343748  MEMB      34              0.0000000000
      3671        34  SAPE      C11            15.8559394499      -17.7190063358       19.3213107059  MEMB      34              0.0000000000
      3672        34  SAPE      H11A           16.6139963401      -16.9696177170       19.6348103354  MEMB      34              0.0000000000
      3673        34  SAPE      H11B           16.1062314523      -18.0220603013       18.2658663035  MEMB      34              0.0000000000
      3674        34  SAPE      P              17.0002149035      -19.7656971924       20.5885824598  MEMB      34              0.0000000000
      3675        34  SAPE      O13            18.1321298506      -19.1840209149       21.2903422713  MEMB      34              0.0000000000
      3676        34  SAPE      O14            16.5827523342      -20.9835409675       21.2541464461  MEMB      34              0.0000000000
      3677        34  SAPE      O12            15.8213021456      -18.7764355187       20.2803220480  MEMB      34              0.0000000000
      3678        34  SAPE      O11            17.3643384563      -20.0202924516       19.1270760622  MEMB      34              0.0000000000
      3679        34  SAPE      C1             18.2381045470      -21.0375875780       18.7966535387  MEMB      34              0.0000000000
      3680        34  SAPE      HA             18.7742955682      -21.3769131968       19.7195486946  MEMB      34              0.0000000000
      3681        34  SAPE      HB             17.7992797982      -21.9813990007       18.4164119741  MEMB      34              0.0000000000
      3682        34  SAPE      C2             19.0679224100      -20.4861453954       17.6452058554  MEMB      34              0.0000000000
      3683        34  SAPE      HS             19.9959333169      -20.2699604573       18.1194666629  MEMB      34              0.0000000000
      3684        34  SAPE      O21            18.7237086995      -19.2551406889       17.0761666093  MEMB      34              0.0000000000
      3685        34  SAPE      C21            19.7378790759      -18.4494129765       16.8430874974  MEMB      34              0.0000000000
      3686        34  SAPE      O22            20.9281928411      -18.6726966064       16.8755877320  MEMB      34              0.0000000000
      3687        34  SAPE      C22            19.1308461494      -17.1700769310       16.7513131311  MEMB      34              0.0000000000
      3688        34  SAPE      H2R            18.2730655424      -17.2893248069       16.0524705600  MEMB      34              0.0000000000
      3689        34  SAPE      H2S            18.8010039835      -16.8400741422       17.7561055104  MEMB      34              0.0000000000
      3690        34  SAPE      C3             19.1184121563      -21.5185528664       16.5081673127  MEMB      34              0.0000000000
      3691        34  SAPE      HX             19.6478896787      -22.3999201656       16.9408627074  MEMB      34              0.0000000000
      3692        34  SAPE      HY             19.6737312515      -21.0046192279       15.6860272003  MEMB      34              0.0000000000
      3693        34  SAPE      O31            17.8934366259      -21.9729046871       16.0170001526  MEMB      34              0.0000000000
      3694        34  SAPE      C31            18.0238260525      -22.8298862275       15.0166228371  MEMB      34              0.0000000000
      3695        34  SAPE      O32            19.0105374109      -23.1132905092       14.3948085057  MEMB      34              0.0000000000
      3696        34  SAPE      C32            16.6769669127      -23.2393696884       14.5765063553  MEMB      34              0.0000000000
      3697        34  SAPE      H2X            16.0050497340      -22.8278909137       15.3531902624  MEMB      34              0.0000000000
      3698        34  SAPE      H2Y            16.6839823295      -24.3443933729       14.5946473969  MEMB      34              0.0000000000
      3699        34  SAPE      C23            20.2124328754      -16.2205937286       16.3204406350  MEMB      34              0.0000000000
      3700        34  SAPE      H3R            21.0745572521      -16.3285871639       16.8371733733  MEMB      34              0.0000000000
      3701        34  SAPE      H3S            20.0563205813      -15.2996289150       16.9025787861  MEMB      34              0.0000000000
      3702        34  SAPE      C24            20.3330371360      -16.0668321335       14.8235810716  MEMB      34              0.0000000000
      3703        34  SAPE      H4R            20.4873396916      -15.0332049697       14.3723816003  MEMB      34              0.0000000000
      3704        34  SAPE      H4S            19.3737421901      -16.5124572584       14.5787354366  MEMB      34              0.0000000000
      3705        34  SAPE      C25            21.1850476735      -16.8532399937       14.0868583381  MEMB      34              0.0000000000
      3706        34  SAPE      H5R            22.0803853569      -16.3237542295       14.1766329207  MEMB      34              0.0000000000
      3707        34  SAPE      C26            21.0366023790      -17.7393603935       13.1739927972  MEMB      34              0.0000000000
      3708        34  SAPE      H6R            21.9603220814      -18.2513502375       13.1079400405  MEMB      34              0.0000000000
      3709        34  SAPE      C27            19.8260079272      -18.3005106562       12.5114298522  MEMB      34              0.0000000000
      3710        34  SAPE      H7R            19.5507239940      -17.5748827203       11.7083352520  MEMB      34              0.0000000000
      3711        34  SAPE      H7S            19.0234791119      -18.3684780238       13.2407090892  MEMB      34              0.0000000000
      3712        34  SAPE      C28            19.7804999499      -19.6471716231       11.9027675387  MEMB      34              0.0000000000
      3713        34  SAPE      H8R            19.9274987403      -20.5229354733       12.5575405285  MEMB      34              0.0000000000
      3714        34  SAPE      C29            19.9325069502      -19.8111508345       10.6082353015  MEMB      34              0.0000000000
      3715        34  SAPE      H9R            20.2019630657      -20.8719697072       10.3883871463  MEMB      34              0.0000000000
      3716        34  SAPE      C210           20.2130650538      -18.6710869220        9.5566051995  MEMB      34              0.0000000000
      3717        34  SAPE      H10R           20.8952171113      -18.8792068598        8.7130610064  MEMB      34              0.0000000000
      3718        34  SAPE      H10S           20.8605841935      -17.8226184835        9.8865356965  MEMB      34              0.0000000000
      3719        34  SAPE      C211           19.1441069214      -18.2932763616        8.6837370573  MEMB      34              0.0000000000
      3720        34  SAPE      H11R           18.2656879530      -18.8981449802        8.8445795133  MEMB      34              0.0000000000
      3721        34  SAPE      C212           19.3289883398      -17.5939217013        7.5752960512  MEMB      34              0.0000000000
      3722        34  SAPE      H12R           18.4226729856      -17.2118108883        7.1375450677  MEMB      34              0.0000000000
      3723        34  SAPE      C213           20.6693829780      -17.1058626831        7.0887045619  MEMB      34              0.0000000000
      3724        34  SAPE      H13R           21.5605197692      -17.4841870848        7.5293162581  MEMB      34              0.0000000000
      3725        34  SAPE      H13S           20.8222930791      -16.2207923560        7.5681219664  MEMB      34              0.0000000000
      3726        34  SAPE      C214           20.9166688350      -16.7464321006        5.7008989331  MEMB      34              0.0000000000
      3727        34  SAPE      H14R           21.4182382092      -15.7654731209        5.6200710872  MEMB      34              0.0000000000
      3728        34  SAPE      C215           20.5983106839      -17.3370284305        4.5645654530  MEMB      34              0.0000000000
      3729        34  SAPE      H15R           20.5375884528      -16.7228116037        3.6563132643  MEMB      34              0.0000000000
      3730        34  SAPE      C216           19.8898247392      -18.6134307814        4.4790327346  MEMB      34              0.0000000000
      3731        34  SAPE      H16R           19.8442004024      -18.8381057505        3.4105210976  MEMB      34              0.0000000000
      3732        34  SAPE      H16S           18.9065890632      -18.7186113181        4.9915475092  MEMB      34              0.0000000000
      3733        34  SAPE      C217           20.8617988047      -19.4886638354        5.1919964893  MEMB      34              0.0000000000
      3734        34  SAPE      H17R           20.7330778058      -19.3529317832        6.2745225210  MEMB      34              0.0000000000
      3735        34  SAPE      H17S           21.8752498624      -19.4194216362        4.9753178052  MEMB      34              0.0000000000
      3736        34  SAPE      C218           20.7521987167      -20.8889829381        4.8706512854  MEMB      34              0.0000000000
      3737        34  SAPE      H18R           19.8194682115      -20.9621454363        5.4351172532  MEMB      34              0.0000000000
      3738        34  SAPE      H18S           21.2608242598      -21.4879437513        5.5404265995  MEMB      34              0.0000000000
      3739        34  SAPE      C219           21.2349836782      -21.4828875517        3.4815088490  MEMB      34              0.0000000000
      3740        34  SAPE      H19R           22.2860230669      -21.3451709617        3.3734851830  MEMB      34              0.0000000000
      3741        34  SAPE      H19S           20.8922756575      -20.5747288085        2.9412496315  MEMB      34              0.0000000000
      3742        34  SAPE      C220           21.1979682293      -23.0533102220        2.8432323888  MEMB      34              0.0000000000
      3743        34  SAPE      H20R           20.1995291097      -23.2103749872        3.0545613178  MEMB      34              0.0000000000
      3744        34  SAPE      H20S           21.1211035458      -23.9209663750        3.3522521346  MEMB      34              0.0000000000
      3745        34  SAPE      H20T           20.7531026280      -23.4345811307        1.8840213511  MEMB      34              0.0000000000
      3746        34  SAPE      C33            16.4154713881      -22.7420721617       13.1349226511  MEMB      34              0.0000000000
      3747        34  SAPE      H3X            16.7958121169      -23.5087075163       12.4217355292  MEMB      34              0.0000000000
      3748        34  SAPE      H3Y            17.0520052819      -21.8516208514       12.9134445536  MEMB      34              0.0000000000
      3749        34  SAPE      C34            14.9374232007      -22.3656166403       12.8840693209  MEMB      34              0.0000000000
      3750        34  SAPE      H4X            14.2393564156      -23.2124213758       13.0774816600  MEMB      34              0.0000000000
      3751        34  SAPE      H4Y            14.8050580113      -22.1167737046       11.8087857794  MEMB      34              0.0000000000
      3752        34  SAPE      C35            14.4439977307      -21.2065790500       13.7821305044  MEMB      34              0.0000000000
      3753        34  SAPE      H5X            14.4690962964      -21.5802297204       14.8270228418  MEMB      34              0.0000000000
      3754        34  SAPE      H5Y            13.3792778211      -20.9790820303       13.5452134824  MEMB      34              0.0000000000
      3755        34  SAPE      C36            15.2227842628      -19.8818256527       13.6652786168  MEMB      34              0.0000000000
      3756        34  SAPE      H6X            16.2972842290      -19.9998497964       13.9211051373  MEMB      34              0.0000000000
      3757        34  SAPE      H6Y            14.8066624732      -19.1446325987       14.3863452558  MEMB      34              0.0000000000
      3758        34  SAPE      C37            15.2038996332      -19.3753728748       12.2252968874  MEMB      34              0.0000000000
      3759        34  SAPE      H7X            14.1585091524      -19.3052954136       11.8523329241  MEMB      34              0.0000000000
      3760        34  SAPE      H7Y            15.7080812226      -20.1666867727       11.6305535288  MEMB      34              0.0000000000
      3761        34  SAPE      C38            15.9635727599      -18.0607637441       12.0146677911  MEMB      34              0.0000000000
      3762        34  SAPE      H8X            17.0112125760      -18.1178793208       12.3656403527  MEMB      34              0.0000000000
      3763        34  SAPE      H8Y            15.4480458097      -17.2685980667       12.5993357104  MEMB      34              0.0000000000
      3764        34  SAPE      C39            16.0472365594      -17.7027509868       10.5466515647  MEMB      34              0.0000000000
      3765        34  SAPE      H9X            16.4651807349      -18.5358398264        9.9483971711  MEMB      34              0.0000000000
      3766        34  SAPE      H9Y            16.6422285855      -16.7832425153       10.3579932793  MEMB      34              0.0000000000
      3767        34  SAPE      C310           14.6854969634      -17.4498237043       10.0392784467  MEMB      34              0.0000000000
      3768        34  SAPE      H10X           14.3588946371      -16.5019926005       10.5333798377  MEMB      34              0.0000000000
      3769        34  SAPE      H10Y           13.9205956925      -18.2278831580       10.2141581894  MEMB      34              0.0000000000
      3770        34  SAPE      C311           14.6890741159      -17.3080281116        8.5570154864  MEMB      34              0.0000000000
      3771        34  SAPE      H11X           15.4162825628      -16.5243954730        8.2356667823  MEMB      34              0.0000000000
      3772        34  SAPE      H11Y           13.6003724622      -17.0650327611        8.5355597074  MEMB      34              0.0000000000
      3773        34  SAPE      C312           14.5188791387      -18.4105266946        7.5567079496  MEMB      34              0.0000000000
      3774        34  SAPE      H12X           13.5738543907      -18.9508119912        7.8133694775  MEMB      34              0.0000000000
      3775        34  SAPE      H12Y           15.4098640930      -19.0098515009        7.7421787886  MEMB      34              0.0000000000
      3776        34  SAPE      C313           14.4098942949      -17.9872033505        6.0715617143  MEMB      34              0.0000000000
      3777        34  SAPE      H13X           13.8285578154      -17.0847645143        5.8932863317  MEMB      34              0.0000000000
      3778        34  SAPE      H13Y           13.7379436167      -18.7420331828        5.6273818821  MEMB      34              0.0000000000
      3779        34  SAPE      C314           15.7498732458      -17.8866462063        5.3136924398  MEMB      34              0.0000000000
      3780        34  SAPE      H14X           16.5388629746      -18.3589153427        5.9366430536  MEMB      34              0.0000000000
      3781        34  SAPE      H14Y           16.0156840571      -16.8137467534        5.1688706921  MEMB      34              0.0000000000
      3782        34  SAPE      C315           15.7664665504      -18.5386695806        3.9210072090  MEMB      34              0.0000000000
      3783        34  SAPE      H15X           16.7884363078      -18.4875746106        3.4737494694  MEMB      34              0.0000000000
      3784        34  SAPE      H15Y           15.0832005090      -17.9591241168        3.2603723893  MEMB      34              0.0000000000
      3785        34  SAPE      C316           15.3636123334      -20.0084847902        3.9149652781  MEMB      34              0.0000000000
      3786        34  SAPE      H16X           14.2958111194      -20.1302389452        4.1864170617  MEMB      34              0.0000000000
      3787        34  SAPE      H16Y           15.9780697303      -20.5844564600        4.6519607976  MEMB      34              0.0000000000
      3788        34  SAPE      C317           15.5066865824      -20.6100557762        2.5287381164  MEMB      34              0.0000000000
      3789        34  SAPE      H17X           16.4818352467      -20.2985626957        2.1052448547  MEMB      34              0.0000000000
      3790        34  SAPE      H17Y           14.7987964838      -20.2040167751        1.7952052255  MEMB      34              0.0000000000
      3791        34  SAPE      C318           15.3128134412      -22.1055265854        2.6238184315  MEMB      34              0.0000000000
      3792        34  SAPE      H18X           14.3562505805      -22.3789009123        3.0992654725  MEMB      34              0.0000000000
      3793        34  SAPE      H18Y           16.0779447434      -22.5243103299        3.3140461230  MEMB      34              0.0000000000
      3794        34  SAPE      H18Z           15.4203342624      -22.5999673726        1.6302215691  MEMB      34              0.0000000000
      3795        35  CHL1      C3            -24.7770325491       -0.8737827004       17.3236037355  MEMB      35              0.0000000000
      3796        35  CHL1      H3            -25.7185698468       -1.4593543787       17.2163705441  MEMB      35              0.0000000000
      3797        35  CHL1      O3            -24.4863958714       -0.8498559552       18.7002829242  MEMB      35              0.0000000000
      3798        35  CHL1      H3'           -24.3163015925        0.0704848862       18.9306554640  MEMB      35              0.0000000000
      3799        35  CHL1      C4            -23.6883483002       -1.6387574448       16.5958821351  MEMB      35              0.0000000000
      3800        35  CHL1      H4A           -22.6562706111       -1.2838812482       16.8509977475  MEMB      35              0.0000000000
      3801        35  CHL1      H4B           -23.7368129748       -2.6697553734       17.0120327810  MEMB      35              0.0000000000
      3802        35  CHL1      C5            -24.0769361887       -1.6075220427       15.1215928702  MEMB      35              0.0000000000
      3803        35  CHL1      C6            -24.4838818626       -2.7022876596       14.4876530952  MEMB      35              0.0000000000
      3804        35  CHL1      H6            -24.4085953942       -3.6384932988       15.0509933425  MEMB      35              0.0000000000
      3805        35  CHL1      C7            -24.5287425523       -2.8337823290       12.9764364875  MEMB      35              0.0000000000
      3806        35  CHL1      H7A           -23.9366906063       -3.6716840217       12.5290752829  MEMB      35              0.0000000000
      3807        35  CHL1      H7B           -25.5003412595       -3.1875935359       12.7158995381  MEMB      35              0.0000000000
      3808        35  CHL1      C8            -23.9364953364       -1.6129962044       12.2428562374  MEMB      35              0.0000000000
      3809        35  CHL1      H8            -22.8184486010       -1.5658595287       12.3067973530  MEMB      35              0.0000000000
      3810        35  CHL1      C14           -24.4110266573       -1.6849852701       10.8052057741  MEMB      35              0.0000000000
      3811        35  CHL1      H14           -25.5071713785       -1.7631971723       10.8571012810  MEMB      35              0.0000000000
      3812        35  CHL1      C15           -24.1301715828       -2.9148737028        9.9881119978  MEMB      35              0.0000000000
      3813        35  CHL1      H15A          -23.1450433915       -2.7788734579       10.3580346858  MEMB      35              0.0000000000
      3814        35  CHL1      H15B          -24.5292790290       -3.8930810769       10.2840963627  MEMB      35              0.0000000000
      3815        35  CHL1      C16           -24.1098114059       -2.5694199492        8.5184130363  MEMB      35              0.0000000000
      3816        35  CHL1      H16A          -23.1306413706       -2.6001909278        8.0037015481  MEMB      35              0.0000000000
      3817        35  CHL1      H16B          -24.7689045386       -3.2604124799        7.9642420167  MEMB      35              0.0000000000
      3818        35  CHL1      C17           -24.4984530530       -1.0844901796        8.5781778952  MEMB      35              0.0000000000
      3819        35  CHL1      H17           -25.5987795108       -1.1531605308        8.6885107728  MEMB      35              0.0000000000
      3820        35  CHL1      C13           -23.9645099948       -0.5451696864        9.9351453891  MEMB      35              0.0000000000
      3821        35  CHL1      C18           -22.4365009173       -0.3607542664        9.8954796850  MEMB      35              0.0000000000
      3822        35  CHL1      H18A          -21.8741484153       -1.0906842899        9.2851344157  MEMB      35              0.0000000000
      3823        35  CHL1      H18B          -22.3152924096        0.6318908764        9.4514461378  MEMB      35              0.0000000000
      3824        35  CHL1      H18C          -21.9260963012       -0.2714020289       10.8705262677  MEMB      35              0.0000000000
      3825        35  CHL1      C12           -24.6206000723        0.6704090477       10.5825698709  MEMB      35              0.0000000000
      3826        35  CHL1      H12A          -24.4287154083        1.6169046176       10.0516770914  MEMB      35              0.0000000000
      3827        35  CHL1      H12B          -25.6995132895        0.4309581810       10.6008120876  MEMB      35              0.0000000000
      3828        35  CHL1      C11           -24.1968022654        0.8808108887       12.0403090831  MEMB      35              0.0000000000
      3829        35  CHL1      H11A          -23.1255681245        1.1602991479       12.0145369465  MEMB      35              0.0000000000
      3830        35  CHL1      H11B          -24.7793300809        1.7163979408       12.4792454800  MEMB      35              0.0000000000
      3831        35  CHL1      C9            -24.4698951596       -0.3674469834       12.9032994938  MEMB      35              0.0000000000
      3832        35  CHL1      H9            -25.5771233574       -0.4915510563       12.8745362625  MEMB      35              0.0000000000
      3833        35  CHL1      C10           -24.0598024514       -0.2846767835       14.4000748392  MEMB      35              0.0000000000
      3834        35  CHL1      C19           -22.6738144228        0.3307118962       14.4358537992  MEMB      35              0.0000000000
      3835        35  CHL1      H19A          -22.8354483592        1.3691739114       14.0753785046  MEMB      35              0.0000000000
      3836        35  CHL1      H19B          -22.2342750368        0.3947221563       15.4525338360  MEMB      35              0.0000000000
      3837        35  CHL1      H19C          -21.9150379410       -0.1385034232       13.7720512260  MEMB      35              0.0000000000
      3838        35  CHL1      C1            -25.1170820364        0.5122367064       15.2187476427  MEMB      35              0.0000000000
      3839        35  CHL1      H1A           -25.1684319792        1.5513951244       14.8496075466  MEMB      35              0.0000000000
      3840        35  CHL1      H1B           -26.1107834111        0.0330514177       15.0318851022  MEMB      35              0.0000000000
      3841        35  CHL1      C2            -24.9260650328        0.5448938603       16.7555819268  MEMB      35              0.0000000000
      3842        35  CHL1      H2A           -25.7910339431        1.0635808404       17.2223961581  MEMB      35              0.0000000000
      3843        35  CHL1      H2B           -24.0196377136        1.1270896169       17.0207378076  MEMB      35              0.0000000000
      3844        35  CHL1      C20           -24.1523452940       -0.4199800420        7.2659788757  MEMB      35              0.0000000000
      3845        35  CHL1      H20           -23.0770066482       -0.5659502229        7.0532069067  MEMB      35              0.0000000000
      3846        35  CHL1      C21           -24.4496048644        1.0662686295        7.2486507549  MEMB      35              0.0000000000
      3847        35  CHL1      H21A          -24.0373783087        1.5813610775        6.3604728669  MEMB      35              0.0000000000
      3848        35  CHL1      H21B          -24.1575902698        1.6204559231        8.1441930374  MEMB      35              0.0000000000
      3849        35  CHL1      H21C          -25.5392059000        1.1089811822        7.1516551342  MEMB      35              0.0000000000
      3850        35  CHL1      C22           -24.9670555684       -1.0749734779        6.1414753178  MEMB      35              0.0000000000
      3851        35  CHL1      H22A          -24.7724516990       -2.1685443708        6.1139305867  MEMB      35              0.0000000000
      3852        35  CHL1      H22B          -26.0538719113       -0.9351548249        6.3503859846  MEMB      35              0.0000000000
      3853        35  CHL1      C23           -24.6438539027       -0.4869434506        4.7740701743  MEMB      35              0.0000000000
      3854        35  CHL1      H23A          -24.7509652743        0.6203586489        4.7431236514  MEMB      35              0.0000000000
      3855        35  CHL1      H23B          -23.5792483405       -0.6882521742        4.5349933877  MEMB      35              0.0000000000
      3856        35  CHL1      C24           -25.6007962639       -1.0746385226        3.7443310696  MEMB      35              0.0000000000
      3857        35  CHL1      H24A          -25.5117943894       -2.1704708581        3.6854925468  MEMB      35              0.0000000000
      3858        35  CHL1      H24B          -26.6465070704       -0.8349502777        4.0653426701  MEMB      35              0.0000000000
      3859        35  CHL1      C25           -25.2820004275       -0.6135923075        2.3359502871  MEMB      35              0.0000000000
      3860        35  CHL1      H25           -24.7777036431        0.3887669109        2.4378570202  MEMB      35              0.0000000000
      3861        35  CHL1      C26           -24.2540891735       -1.3783225700        1.6243498947  MEMB      35              0.0000000000
      3862        35  CHL1      H26A          -23.2960023735       -1.3661905483        2.1798687414  MEMB      35              0.0000000000
      3863        35  CHL1      H26B          -24.6921130586       -2.3754552522        1.5058631252  MEMB      35              0.0000000000
      3864        35  CHL1      H26C          -24.1657062584       -0.9036217171        0.6240378051  MEMB      35              0.0000000000
      3865        35  CHL1      C27           -26.5169641975       -0.7237522774        1.4208783673  MEMB      35              0.0000000000
      3866        35  CHL1      H27A          -27.3708109061       -0.2139474827        1.9329856027  MEMB      35              0.0000000000
      3867        35  CHL1      H27B          -26.3051360158       -0.2017183650        0.4444609132  MEMB      35              0.0000000000
      3868        35  CHL1      H27C          -26.8506822490       -1.7259502004        1.1790176942  MEMB      35              0.0000000000
      3869        36  CHL1      C3            -12.8102002530       21.8875324598       17.3544103866  MEMB      36              0.0000000000
      3870        36  CHL1      H3            -11.8274588801       21.9195325072       16.8244279078  MEMB      36              0.0000000000
      3871        36  CHL1      O3            -12.6190765383       22.2917548224       18.6972227158  MEMB      36              0.0000000000
      3872        36  CHL1      H3'           -13.4246530093       22.0469258688       19.1947421591  MEMB      36              0.0000000000
      3873        36  CHL1      C4            -13.7519959376       22.8892690678       16.6948826843  MEMB      36              0.0000000000
      3874        36  CHL1      H4A           -14.7055052208       22.8551633345       17.2633409092  MEMB      36              0.0000000000
      3875        36  CHL1      H4B           -13.3991552701       23.9298085045       16.7946011000  MEMB      36              0.0000000000
      3876        36  CHL1      C5            -13.8715966482       22.5056570837       15.2484223906  MEMB      36              0.0000000000
      3877        36  CHL1      C6            -13.5001365998       23.3206569341       14.2620219505  MEMB      36              0.0000000000
      3878        36  CHL1      H6            -13.1190486302       24.3106796120       14.4968733691  MEMB      36              0.0000000000
      3879        36  CHL1      C7            -13.6735333698       23.0299009200       12.8184089603  MEMB      36              0.0000000000
      3880        36  CHL1      H7A           -14.0714238616       23.9091838913       12.2676677767  MEMB      36              0.0000000000
      3881        36  CHL1      H7B           -12.7391458580       22.6843438475       12.3436978109  MEMB      36              0.0000000000
      3882        36  CHL1      C8            -14.6511558831       21.9230922765       12.6179006860  MEMB      36              0.0000000000
      3883        36  CHL1      H8            -15.6249907287       22.4371341835       12.9194305648  MEMB      36              0.0000000000
      3884        36  CHL1      C14           -14.4036372073       21.4490551846       11.1291949313  MEMB      36              0.0000000000
      3885        36  CHL1      H14           -13.3930785235       21.1006006349       10.9838853129  MEMB      36              0.0000000000
      3886        36  CHL1      C15           -14.6526725554       22.4442840070        9.9371961571  MEMB      36              0.0000000000
      3887        36  CHL1      H15A          -15.5502480753       23.1005763662       10.0478805803  MEMB      36              0.0000000000
      3888        36  CHL1      H15B          -13.7748073692       23.0990166729        9.8827345514  MEMB      36              0.0000000000
      3889        36  CHL1      C16           -14.7847361942       21.5405230357        8.6871970291  MEMB      36              0.0000000000
      3890        36  CHL1      H16A          -15.6075117511       21.8507422023        8.0172382943  MEMB      36              0.0000000000
      3891        36  CHL1      H16B          -13.8317534373       21.5840973780        8.1221946710  MEMB      36              0.0000000000
      3892        36  CHL1      C17           -15.0137795510       20.0760212039        9.1736304801  MEMB      36              0.0000000000
      3893        36  CHL1      H17           -14.0847208982       19.5438563287        9.1211958576  MEMB      36              0.0000000000
      3894        36  CHL1      C13           -15.0552660138       20.1963755284       10.7675439799  MEMB      36              0.0000000000
      3895        36  CHL1      C18           -16.0938881458       20.9711766363       11.2964961162  MEMB      36              0.0000000000
      3896        36  CHL1      H18A          -16.6577561587       20.9012787004       12.2408943000  MEMB      36              0.0000000000
      3897        36  CHL1      H18B          -16.6363081788       21.8947549789       11.0061254926  MEMB      36              0.0000000000
      3898        36  CHL1      H18C          -16.3485455212       20.0734629526       10.6776497230  MEMB      36              0.0000000000
      3899        36  CHL1      C12           -15.0301964949       18.9246960653       11.6869364232  MEMB      36              0.0000000000
      3900        36  CHL1      H12A          -15.8843050156       18.2183192646       11.4718847088  MEMB      36              0.0000000000
      3901        36  CHL1      H12B          -14.1103865300       18.4375819664       11.3767386656  MEMB      36              0.0000000000
      3902        36  CHL1      C11           -15.1438247605       19.3487733123       13.1797851617  MEMB      36              0.0000000000
      3903        36  CHL1      H11A          -16.1519170846       19.5962715418       13.3979876434  MEMB      36              0.0000000000
      3904        36  CHL1      H11B          -14.9791298735       18.5291994138       13.8891134192  MEMB      36              0.0000000000
      3905        36  CHL1      C9            -14.4665721790       20.7119015765       13.5546903255  MEMB      36              0.0000000000
      3906        36  CHL1      H9            -13.5099390630       20.4239261736       13.2077688512  MEMB      36              0.0000000000
      3907        36  CHL1      C10           -14.4219059422       21.1225237676       15.0418294064  MEMB      36              0.0000000000
      3908        36  CHL1      C19           -15.7697152273       21.2570573004       15.6474841379  MEMB      36              0.0000000000
      3909        36  CHL1      H19A          -15.9049513524       21.4973912978       16.7093293373  MEMB      36              0.0000000000
      3910        36  CHL1      H19B          -16.3894433536       21.9734875066       15.0569022063  MEMB      36              0.0000000000
      3911        36  CHL1      H19C          -16.1448564311       20.2113556108       15.6889174170  MEMB      36              0.0000000000
      3912        36  CHL1      C1            -13.7961214850       20.0296384156       15.8938356757  MEMB      36              0.0000000000
      3913        36  CHL1      H1A           -14.4216410809       19.1191706260       15.8678689049  MEMB      36              0.0000000000
      3914        36  CHL1      H1B           -12.9147707540       19.6852979930       15.4201785344  MEMB      36              0.0000000000
      3915        36  CHL1      C2            -13.3902649716       20.4556562471       17.3063064723  MEMB      36              0.0000000000
      3916        36  CHL1      H2A           -12.6287812828       19.7267212121       17.6599849935  MEMB      36              0.0000000000
      3917        36  CHL1      H2B           -14.2922396408       20.3660914739       17.9423711397  MEMB      36              0.0000000000
      3918        36  CHL1      C20           -15.9265229335       19.1978349844        8.2315671767  MEMB      36              0.0000000000
      3919        36  CHL1      H20           -16.9889389314       19.4014614578        8.3485498518  MEMB      36              0.0000000000
      3920        36  CHL1      C21           -16.1101837793       17.7259561696        8.6038005443  MEMB      36              0.0000000000
      3921        36  CHL1      H21A          -16.6767742617       17.1954986036        7.8162112443  MEMB      36              0.0000000000
      3922        36  CHL1      H21B          -16.6425656601       17.6271585892        9.5695654835  MEMB      36              0.0000000000
      3923        36  CHL1      H21C          -15.1895229001       17.2010448096        8.6746580926  MEMB      36              0.0000000000
      3924        36  CHL1      C22           -15.7475757053       19.4462609016        6.7085954085  MEMB      36              0.0000000000
      3925        36  CHL1      H22A          -16.4750930329       18.7957243812        6.1773336065  MEMB      36              0.0000000000
      3926        36  CHL1      H22B          -15.9473982320       20.4899718526        6.3858790459  MEMB      36              0.0000000000
      3927        36  CHL1      C23           -14.3671852444       19.3514274630        6.1648501867  MEMB      36              0.0000000000
      3928        36  CHL1      H23A          -13.6475258358       19.7534431069        6.9192229412  MEMB      36              0.0000000000
      3929        36  CHL1      H23B          -14.2236137772       18.2794624343        5.9660535442  MEMB      36              0.0000000000
      3930        36  CHL1      C24           -14.2650549034       20.0553926710        4.8116012583  MEMB      36              0.0000000000
      3931        36  CHL1      H24A          -15.1034008465       19.6648545857        4.1945369598  MEMB      36              0.0000000000
      3932        36  CHL1      H24B          -14.2223704713       21.1421277332        4.9481731536  MEMB      36              0.0000000000
      3933        36  CHL1      C25           -12.9614246931       19.8092168781        4.1256488595  MEMB      36              0.0000000000
      3934        36  CHL1      H25           -13.0494513132       18.7445007219        4.1486938375  MEMB      36              0.0000000000
      3935        36  CHL1      C26           -12.8256675508       19.9454571327        2.5794307178  MEMB      36              0.0000000000
      3936        36  CHL1      H26A          -12.5922603938       20.9927638784        2.3688023152  MEMB      36              0.0000000000
      3937        36  CHL1      H26B          -12.0048217754       19.3603374657        2.0928158942  MEMB      36              0.0000000000
      3938        36  CHL1      H26C          -13.7208017222       19.5195721595        2.0877192734  MEMB      36              0.0000000000
      3939        36  CHL1      C27           -11.8078856334       20.3840429537        5.0060255337  MEMB      36              0.0000000000
      3940        36  CHL1      H27A          -11.4430066719       21.3187547008        4.6116686766  MEMB      36              0.0000000000
      3941        36  CHL1      H27B          -11.8626286926       20.1218465760        6.0777017599  MEMB      36              0.0000000000
      3942        36  CHL1      H27C          -10.7808652160       20.0398238317        4.9030627488  MEMB      36              0.0000000000
      3943        37  SAPS      N              23.4567018424       11.4898418294       21.3239416363  MEMB      37              0.0000000000
      3944        37  SAPS      HN1            22.4950600043       11.4650441080       20.9434057214  MEMB      37              0.0000000000
      3945        37  SAPS      HN2            23.4533409318       11.9410979672       22.2590985718  MEMB      37              0.0000000000
      3946        37  SAPS      HN3            24.0777908349       11.9495600530       20.6248522984  MEMB      37              0.0000000000
      3947        37  SAPS      C12            23.9338295648       10.0920739038       21.4759413414  MEMB      37              0.0000000000
      3948        37  SAPS      H12A           24.9814003306       10.1544984372       21.6074686687  MEMB      37              0.0000000000
      3949        37  SAPS      C13            23.3406176896        9.3162805915       22.6686535371  MEMB      37              0.0000000000
      3950        37  SAPS      O13A           22.4399916948        9.8707706327       23.3480159061  MEMB      37              0.0000000000
      3951        37  SAPS      O13B           23.6474604451        8.0978281116       22.7766883016  MEMB      37              0.0000000000
      3952        37  SAPS      C11            23.7032056127        9.3243133468       20.1709018173  MEMB      37              0.0000000000
      3953        37  SAPS      H11A           22.5992240427        9.1881025344       20.0511814870  MEMB      37              0.0000000000
      3954        37  SAPS      H11B           24.2070846348        8.3326246953       20.2187617495  MEMB      37              0.0000000000
      3955        37  SAPS      P              24.4472857432        9.3654581035       17.7053288209  MEMB      37              0.0000000000
      3956        37  SAPS      O13            25.8287407562        9.0094321302       17.3908216341  MEMB      37              0.0000000000
      3957        37  SAPS      O14            23.3441989227        8.3821467368       17.5419974968  MEMB      37              0.0000000000
      3958        37  SAPS      O12            24.2936687344       10.0622160310       19.1200488982  MEMB      37              0.0000000000
      3959        37  SAPS      O11            24.1335116915       10.5684857761       16.9076700295  MEMB      37              0.0000000000
      3960        37  SAPS      C1             23.2599565558       11.4941524153       17.4608295756  MEMB      37              0.0000000000
      3961        37  SAPS      HA             22.2159527557       11.1182632330       17.7003577642  MEMB      37              0.0000000000
      3962        37  SAPS      HB             23.6788550456       12.1889026994       18.2138674758  MEMB      37              0.0000000000
      3963        37  SAPS      C2             23.1233232783       12.3456521146       16.3672318654  MEMB      37              0.0000000000
      3964        37  SAPS      HS             22.0504410440       12.6279496976       16.6850311597  MEMB      37              0.0000000000
      3965        37  SAPS      O21            23.1557273141       11.5860268863       15.1231442436  MEMB      37              0.0000000000
      3966        37  SAPS      C21            22.0788008664       10.7826903604       14.9438184392  MEMB      37              0.0000000000
      3967        37  SAPS      O22            21.1492694782       10.6515736662       15.7027432901  MEMB      37              0.0000000000
      3968        37  SAPS      C22            22.0622153214       10.5316733799       13.4293818183  MEMB      37              0.0000000000
      3969        37  SAPS      H2R            21.0985178972       10.6144400702       12.8815712399  MEMB      37              0.0000000000
      3970        37  SAPS      H2S            22.7621001314       11.2167696015       12.9178706836  MEMB      37              0.0000000000
      3971        37  SAPS      C3             24.2329381399       13.5647938123       16.3151501682  MEMB      37              0.0000000000
      3972        37  SAPS      HX             24.2689866020       14.1276178231       17.2729935852  MEMB      37              0.0000000000
      3973        37  SAPS      HY             24.1254413483       14.4792483347       15.6943159997  MEMB      37              0.0000000000
      3974        37  SAPS      O31            25.4371017658       13.1655642094       15.7481997240  MEMB      37              0.0000000000
      3975        37  SAPS      C31            26.2659204033       12.7181789513       16.6128535303  MEMB      37              0.0000000000
      3976        37  SAPS      O32            26.2217928728       12.8950233389       17.8159757052  MEMB      37              0.0000000000
      3977        37  SAPS      C32            27.2716525779       11.9153823224       15.8297815237  MEMB      37              0.0000000000
      3978        37  SAPS      H2X            27.6073127374       11.1516712538       16.5480135823  MEMB      37              0.0000000000
      3979        37  SAPS      H2Y            28.1095719105       12.5259743828       15.5525342580  MEMB      37              0.0000000000
      3980        37  SAPS      C23            22.7289265981        9.2355731684       13.4954792164  MEMB      37              0.0000000000
      3981        37  SAPS      H3R            22.1222556208        8.5851909351       14.1681175034  MEMB      37              0.0000000000
      3982        37  SAPS      H3S            23.7497566090        9.4493981400       13.9125253373  MEMB      37              0.0000000000
      3983        37  SAPS      C24            22.8882764797        8.6018325445       12.1902843900  MEMB      37              0.0000000000
      3984        37  SAPS      H4R            23.4850048400        7.7199316231       12.3431366665  MEMB      37              0.0000000000
      3985        37  SAPS      H4S            23.4572346227        9.2972611044       11.5216523606  MEMB      37              0.0000000000
      3986        37  SAPS      C25            21.5473457637        8.1253899984       11.8251930180  MEMB      37              0.0000000000
      3987        37  SAPS      H5R            20.8403403365        7.6462839524       12.4771907557  MEMB      37              0.0000000000
      3988        37  SAPS      C26            21.1485120566        8.4297107349       10.7023826107  MEMB      37              0.0000000000
      3989        37  SAPS      H6R            20.0788905656        8.2527135842       10.5166142415  MEMB      37              0.0000000000
      3990        37  SAPS      C27            22.0553910770        9.2225356381        9.8903086619  MEMB      37              0.0000000000
      3991        37  SAPS      H7R            21.4416217729        8.9639245891        9.2513058795  MEMB      37              0.0000000000
      3992        37  SAPS      H7S            22.8961182624        8.9132146495        9.2404461570  MEMB      37              0.0000000000
      3993        37  SAPS      C28            21.6325972891       10.5427594761        9.8926632460  MEMB      37              0.0000000000
      3994        37  SAPS      H8R            21.6985935487       11.1059918540       10.8153624829  MEMB      37              0.0000000000
      3995        37  SAPS      C29            21.5952534525       11.1679676836        8.8078738410  MEMB      37              0.0000000000
      3996        37  SAPS      H9R            21.1447718237       12.0286310919        9.1016342861  MEMB      37              0.0000000000
      3997        37  SAPS      C210           21.8649290505       11.0356955824        7.3638114322  MEMB      37              0.0000000000
      3998        37  SAPS      H10R           22.6640120527       10.3951638241        7.0454556069  MEMB      37              0.0000000000
      3999        37  SAPS      H10S           22.3524886625       11.8920835107        6.8134061615  MEMB      37              0.0000000000
      4000        37  SAPS      C211           20.5542774319       11.0818798183        6.7699009984  MEMB      37              0.0000000000
      4001        37  SAPS      H11R           19.5458337043       11.2363190676        7.2782592649  MEMB      37              0.0000000000
      4002        37  SAPS      C212           20.6488181763       10.6502410093        5.6132651048  MEMB      37              0.0000000000
      4003        37  SAPS      H12R           19.7184578558       11.0195672424        5.1938537548  MEMB      37              0.0000000000
      4004        37  SAPS      C213           21.7900218205       10.0318766226        4.7886530372  MEMB      37              0.0000000000
      4005        37  SAPS      H13R           22.6041032668        9.8585162741        5.2706343069  MEMB      37              0.0000000000
      4006        37  SAPS      H13S           21.7218262271       10.9712529817        4.0980291743  MEMB      37              0.0000000000
      4007        37  SAPS      C214           20.8030238766        8.7562918402        4.7168284157  MEMB      37              0.0000000000
      4008        37  SAPS      H14R           20.6221554549        8.9450701833        3.7626381697  MEMB      37              0.0000000000
      4009        37  SAPS      C215           20.5385698394        7.2176606660        4.8995862576  MEMB      37              0.0000000000
      4010        37  SAPS      H15R           19.6100097998        6.6418398054        4.4029890413  MEMB      37              0.0000000000
      4011        37  SAPS      C216           21.2281029898        6.4836623363        5.8714785107  MEMB      37              0.0000000000
      4012        37  SAPS      H16R           20.4198263914        5.9070935456        6.3188497212  MEMB      37              0.0000000000
      4013        37  SAPS      H16S           21.8630528427        7.2654842325        6.3027201552  MEMB      37              0.0000000000
      4014        37  SAPS      C217           22.3749612401        5.5779526927        5.4575862834  MEMB      37              0.0000000000
      4015        37  SAPS      H17R           22.9242946612        5.3560656865        6.3841396454  MEMB      37              0.0000000000
      4016        37  SAPS      H17S           23.2703675360        6.1292640625        5.0699100723  MEMB      37              0.0000000000
      4017        37  SAPS      C218           21.8834510082        4.5163957568        4.4375322576  MEMB      37              0.0000000000
      4018        37  SAPS      H18R           21.9809546178        4.6216627254        3.3221489952  MEMB      37              0.0000000000
      4019        37  SAPS      H18S           20.8277037814        4.3729269392        4.2904781704  MEMB      37              0.0000000000
      4020        37  SAPS      C219           22.9000144863        3.6891448591        4.2831462890  MEMB      37              0.0000000000
      4021        37  SAPS      H19R           22.8189892842        2.9639676315        5.0790984244  MEMB      37              0.0000000000
      4022        37  SAPS      H19S           23.7595520979        4.3743393521        4.4887762961  MEMB      37              0.0000000000
      4023        37  SAPS      C220           22.9633308037        3.1272126971        2.8646790979  MEMB      37              0.0000000000
      4024        37  SAPS      H20R           23.5841966940        2.3598618642        3.0672309127  MEMB      37              0.0000000000
      4025        37  SAPS      H20S           23.3372724179        3.7377459482        2.0317488762  MEMB      37              0.0000000000
      4026        37  SAPS      H20T           21.9466498152        2.9736502739        2.5527685281  MEMB      37              0.0000000000
      4027        37  SAPS      C33            26.7179213234       11.2710891106       14.5541619553  MEMB      37              0.0000000000
      4028        37  SAPS      H3X            25.6907718268       10.9536726402       14.7688557672  MEMB      37              0.0000000000
      4029        37  SAPS      H3Y            27.3768903692       10.4519206395       14.2223254383  MEMB      37              0.0000000000
      4030        37  SAPS      C34            26.6371575485       12.0866249227       13.3077136816  MEMB      37              0.0000000000
      4031        37  SAPS      H4X            27.6885617366       12.1216926330       12.9779001161  MEMB      37              0.0000000000
      4032        37  SAPS      H4Y            26.1126731837       13.0414743911       13.4394047704  MEMB      37              0.0000000000
      4033        37  SAPS      C35            25.9284465041       11.4769726804       12.1048275547  MEMB      37              0.0000000000
      4034        37  SAPS      H5X            24.9476400728       11.2047899554       12.4903344534  MEMB      37              0.0000000000
      4035        37  SAPS      H5Y            26.6178677782       10.6656297271       11.7870841641  MEMB      37              0.0000000000
      4036        37  SAPS      C36            25.4501341287       12.3408758261       10.9353536796  MEMB      37              0.0000000000
      4037        37  SAPS      H6X            26.3658325286       12.5750501394       10.4615359228  MEMB      37              0.0000000000
      4038        37  SAPS      H6Y            24.9657214326       13.3167867448       11.1667013988  MEMB      37              0.0000000000
      4039        37  SAPS      C37            25.0720747002       11.6383764973        9.6833935713  MEMB      37              0.0000000000
      4040        37  SAPS      H7X            24.6965120438       12.4046052098        8.9632640136  MEMB      37              0.0000000000
      4041        37  SAPS      H7Y            24.2692066002       11.0293915185       10.1008192854  MEMB      37              0.0000000000
      4042        37  SAPS      C38            26.2610691166       10.8785882356        9.0384214485  MEMB      37              0.0000000000
      4043        37  SAPS      H8X            26.8767588434       10.3053187264        9.7553941907  MEMB      37              0.0000000000
      4044        37  SAPS      H8Y            27.0048273859       11.5352202274        8.5239421955  MEMB      37              0.0000000000
      4045        37  SAPS      C39            25.6644124385        9.9729026349        8.0035490614  MEMB      37              0.0000000000
      4046        37  SAPS      H9X            24.7943064757       10.5228284743        7.5723976107  MEMB      37              0.0000000000
      4047        37  SAPS      H9Y            25.3640420487        9.0254141013        8.4740982777  MEMB      37              0.0000000000
      4048        37  SAPS      C310           26.5814892415        9.6574689858        6.8857609588  MEMB      37              0.0000000000
      4049        37  SAPS      H10X           27.3437441511        8.8860356343        7.1461085051  MEMB      37              0.0000000000
      4050        37  SAPS      H10Y           27.1436739060       10.6161160717        6.7498055666  MEMB      37              0.0000000000
      4051        37  SAPS      C311           25.7977374623        9.1034531909        5.6739605445  MEMB      37              0.0000000000
      4052        37  SAPS      H11X           25.2054806459        8.2183070277        5.8251149757  MEMB      37              0.0000000000
      4053        37  SAPS      H11Y           26.5976471620        8.6449226690        5.0630175303  MEMB      37              0.0000000000
      4054        37  SAPS      C312           24.8573355069       10.0184027094        4.8593969320  MEMB      37              0.0000000000
      4055        37  SAPS      H12X           25.3148404839       10.6394446293        4.2195784830  MEMB      37              0.0000000000
      4056        37  SAPS      H12Y           24.2939651581       10.8411096964        5.3073072813  MEMB      37              0.0000000000
      4057        37  SAPS      C313           24.6662338303        9.6453881845        3.3974762796  MEMB      37              0.0000000000
      4058        37  SAPS      H13X           24.0261032959        8.8580753474        3.7854511969  MEMB      37              0.0000000000
      4059        37  SAPS      H13Y           25.4945620535        9.1424588544        2.8601079590  MEMB      37              0.0000000000
      4060        37  SAPS      C314           24.1868959047       10.8228879858        2.4689134455  MEMB      37              0.0000000000
      4061        37  SAPS      H14X           24.9814439417       11.4465983733        2.1009612019  MEMB      37              0.0000000000
      4062        37  SAPS      H14Y           23.4094210439       11.4540082812        2.9968672675  MEMB      37              0.0000000000
      4063        37  SAPS      C315           23.9483933048       10.4823440359        0.9900207164  MEMB      37              0.0000000000
      4064        37  SAPS      H15X           23.2554165038       10.9772006416        0.2954330938  MEMB      37              0.0000000000
      4065        37  SAPS      H15Y           22.9254058674       10.5680430815        1.5000538441  MEMB      37              0.0000000000
      4066        37  SAPS      C316           24.6678308097        9.0257477106        0.4468166880  MEMB      37              0.0000000000
      4067        37  SAPS      H16X           24.9665953243        8.2851152353        1.2325569029  MEMB      37              0.0000000000
      4068        37  SAPS      H16Y           25.2731480942        9.2703113436       -0.3975347923  MEMB      37              0.0000000000
      4069        37  SAPS      C317           23.8925833447        7.9334910742       -0.4015418449  MEMB      37              0.0000000000
      4070        37  SAPS      H17X           23.2963831649        7.0143106514        0.0024202072  MEMB      37              0.0000000000
      4071        37  SAPS      H17Y           23.9847303111        6.7854295632       -0.3677202049  MEMB      37              0.0000000000
      4072        37  SAPS      C318           22.9506884392        8.9813785328       -1.2850804819  MEMB      37              0.0000000000
      4073        37  SAPS      H18X           22.0953076370        9.6694244680       -1.0584295904  MEMB      37              0.0000000000
      4074        37  SAPS      H18Y           22.0803252305        8.7625062483       -1.8265311058  MEMB      37              0.0000000000
      4075        37  SAPS      H18Z           23.5341067328        9.7703277509       -1.5380940491  MEMB      37              0.0000000000
      4076        38  SAPE      N             -23.7596730676       -7.0412220397       21.8882903850  MEMB      38              0.0000000000
      4077        38  SAPE      HN1           -23.4691004383       -7.0385687674       20.8791895344  MEMB      38              0.0000000000
      4078        38  SAPE      HN2           -24.1674932456       -6.1224583354       22.1689201576  MEMB      38              0.0000000000
      4079        38  SAPE      HN3           -22.8871327570       -7.2056437142       22.4388149912  MEMB      38              0.0000000000
      4080        38  SAPE      C12           -24.7634743293       -8.1435686817       22.0262753674  MEMB      38              0.0000000000
      4081        38  SAPE      H12A          -25.6449203324       -7.8642720025       21.4119639730  MEMB      38              0.0000000000
      4082        38  SAPE      H12B          -25.0694417685       -8.2274677044       23.0891926789  MEMB      38              0.0000000000
      4083        38  SAPE      C11           -24.1227455786       -9.4248310431       21.5007270965  MEMB      38              0.0000000000
      4084        38  SAPE      H11A          -24.8612209677      -10.2587219026       21.4763726837  MEMB      38              0.0000000000
      4085        38  SAPE      H11B          -23.3268687030       -9.7114395244       22.2090306143  MEMB      38              0.0000000000
      4086        38  SAPE      P             -24.3526397035       -9.4382621851       18.8875864001  MEMB      38              0.0000000000
      4087        38  SAPE      O13           -25.3862893237      -10.4322726805       19.2162333926  MEMB      38              0.0000000000
      4088        38  SAPE      O14           -24.7413494287       -8.1183394781       18.3764568067  MEMB      38              0.0000000000
      4089        38  SAPE      O12           -23.5108088499       -9.2087312233       20.2338952790  MEMB      38              0.0000000000
      4090        38  SAPE      O11           -23.3265522688      -10.0423709513       17.9356947844  MEMB      38              0.0000000000
      4091        38  SAPE      C1            -22.5450579503      -11.0662087243       18.4525054826  MEMB      38              0.0000000000
      4092        38  SAPE      HA            -21.7039152096      -10.3988077184       18.4244048605  MEMB      38              0.0000000000
      4093        38  SAPE      HB            -22.4792846828      -11.3041441400       19.5562392279  MEMB      38              0.0000000000
      4094        38  SAPE      C2            -22.6200189443      -12.4244421830       17.6558897349  MEMB      38              0.0000000000
      4095        38  SAPE      HS            -21.7011447530      -13.0447130668       17.7677392688  MEMB      38              0.0000000000
      4096        38  SAPE      O21           -22.8984074899      -12.3946577132       16.2551376074  MEMB      38              0.0000000000
      4097        38  SAPE      C21           -22.4869281315      -11.5827641970       15.3688432937  MEMB      38              0.0000000000
      4098        38  SAPE      O22           -21.6477899116      -10.7033568640       15.3471289251  MEMB      38              0.0000000000
      4099        38  SAPE      C22           -23.0842817058      -11.9676507794       14.0394041280  MEMB      38              0.0000000000
      4100        38  SAPE      H2R           -23.6571651611      -12.8840792865       14.0206085163  MEMB      38              0.0000000000
      4101        38  SAPE      H2S           -23.2578376803      -10.9607469746       13.5749320155  MEMB      38              0.0000000000
      4102        38  SAPE      C3            -23.6769757148      -13.3050663109       18.3056592120  MEMB      38              0.0000000000
      4103        38  SAPE      HX            -23.5362780236      -13.2350437132       19.4021958597  MEMB      38              0.0000000000
      4104        38  SAPE      HY            -23.5027469980      -14.3552769002       17.9810243407  MEMB      38              0.0000000000
      4105        38  SAPE      O31           -24.9614320954      -12.7877937004       17.9871525605  MEMB      38              0.0000000000
      4106        38  SAPE      C31           -25.7052882526      -13.5017002178       17.2145934075  MEMB      38              0.0000000000
      4107        38  SAPE      O32           -25.4929810075      -14.6328647037       16.8295804936  MEMB      38              0.0000000000
      4108        38  SAPE      C32           -26.9283567145      -12.7421500004       16.8430039708  MEMB      38              0.0000000000
      4109        38  SAPE      H2X           -27.4304385562      -12.3172521600       17.7387182407  MEMB      38              0.0000000000
      4110        38  SAPE      H2Y           -27.5497911324      -13.4982392942       16.3274715814  MEMB      38              0.0000000000
      4111        38  SAPE      C23           -22.0465368841      -12.3167066457       13.1049138935  MEMB      38              0.0000000000
      4112        38  SAPE      H3R           -21.1860555809      -12.2948493070       13.7843993076  MEMB      38              0.0000000000
      4113        38  SAPE      H3S           -21.5268226418      -11.3786001008       13.2409578974  MEMB      38              0.0000000000
      4114        38  SAPE      C24           -22.1001607951      -13.1066614610       11.5847812207  MEMB      38              0.0000000000
      4115        38  SAPE      H4R           -22.6603300028      -12.4304361967       10.9455071262  MEMB      38              0.0000000000
      4116        38  SAPE      H4S           -22.6949824618      -13.9810781899       11.8526249400  MEMB      38              0.0000000000
      4117        38  SAPE      C25           -21.0473802807      -13.9557605712       10.6913140022  MEMB      38              0.0000000000
      4118        38  SAPE      H5R           -19.9643928574      -13.9341649186       10.8739212359  MEMB      38              0.0000000000
      4119        38  SAPE      C26           -21.0274126024      -14.6196878015        9.5758310698  MEMB      38              0.0000000000
      4120        38  SAPE      H6R           -20.0695670387      -15.0061705143        9.1557709168  MEMB      38              0.0000000000
      4121        38  SAPE      C27           -22.2512126115      -14.6638428734        8.8393765621  MEMB      38              0.0000000000
      4122        38  SAPE      H7R           -22.0351701842      -14.8573309172        7.7970212521  MEMB      38              0.0000000000
      4123        38  SAPE      H7S           -22.7061932136      -13.6553727527        8.9228551090  MEMB      38              0.0000000000
      4124        38  SAPE      C28           -22.9872945903      -15.7321811011        9.5441138550  MEMB      38              0.0000000000
      4125        38  SAPE      H8R           -22.4822021767      -16.7176745747        9.6653768090  MEMB      38              0.0000000000
      4126        38  SAPE      C29           -24.1860531152      -15.4818448131       10.0586884778  MEMB      38              0.0000000000
      4127        38  SAPE      H9R           -24.6526047524      -16.3206497787       10.5591586404  MEMB      38              0.0000000000
      4128        38  SAPE      C210          -25.0150128950      -14.2146561290       10.0562180287  MEMB      38              0.0000000000
      4129        38  SAPE      H10R          -24.3517002463      -13.3777513037        9.8847192779  MEMB      38              0.0000000000
      4130        38  SAPE      H10S          -25.4041679998      -14.1633795105       11.0962605913  MEMB      38              0.0000000000
      4131        38  SAPE      C211          -26.1758457395      -13.9800183337        9.1013249358  MEMB      38              0.0000000000
      4132        38  SAPE      H11R          -27.1469208036      -14.1768050416        9.5887312722  MEMB      38              0.0000000000
      4133        38  SAPE      C212          -26.1961795756      -13.6233944587        7.8059301380  MEMB      38              0.0000000000
      4134        38  SAPE      H12R          -27.1282406208      -13.7695265506        7.2321622390  MEMB      38              0.0000000000
      4135        38  SAPE      C213          -24.9812122644      -13.3418584998        6.9750646777  MEMB      38              0.0000000000
      4136        38  SAPE      H13R          -24.5740250087      -14.2833311106        6.5418585080  MEMB      38              0.0000000000
      4137        38  SAPE      H13S          -24.2037490948      -12.9530940722        7.6596858281  MEMB      38              0.0000000000
      4138        38  SAPE      C214          -25.1954092710      -12.2927677603        5.9074564907  MEMB      38              0.0000000000
      4139        38  SAPE      H14R          -24.8109217045      -11.2941989395        6.1578302686  MEMB      38              0.0000000000
      4140        38  SAPE      C215          -25.6931098719      -12.4472685110        4.6702263471  MEMB      38              0.0000000000
      4141        38  SAPE      H15R          -25.6599326060      -11.5927641736        3.9815718190  MEMB      38              0.0000000000
      4142        38  SAPE      C216          -26.1667522629      -13.7120862725        4.0248138984  MEMB      38              0.0000000000
      4143        38  SAPE      H16R          -27.2279811024      -13.5994200377        3.6909038809  MEMB      38              0.0000000000
      4144        38  SAPE      H16S          -26.1160186906      -14.5744741097        4.7242439727  MEMB      38              0.0000000000
      4145        38  SAPE      C217          -25.2705458159      -14.0083337452        2.8066467645  MEMB      38              0.0000000000
      4146        38  SAPE      H17R          -25.1392801271      -13.1168637154        2.1501197134  MEMB      38              0.0000000000
      4147        38  SAPE      H17S          -25.7945685533      -14.8049110222        2.2377804215  MEMB      38              0.0000000000
      4148        38  SAPE      C218          -23.8569661724      -14.5052936707        3.1297984144  MEMB      38              0.0000000000
      4149        38  SAPE      H18R          -23.9050786023      -15.4312453837        3.7456513831  MEMB      38              0.0000000000
      4150        38  SAPE      H18S          -23.2756255373      -13.7104540874        3.6537115803  MEMB      38              0.0000000000
      4151        38  SAPE      C219          -23.0689917175      -14.8940445959        1.8929055478  MEMB      38              0.0000000000
      4152        38  SAPE      H19R          -22.0952456343      -15.2556347851        2.2644736851  MEMB      38              0.0000000000
      4153        38  SAPE      H19S          -22.8568284058      -14.0151495645        1.2394672729  MEMB      38              0.0000000000
      4154        38  SAPE      C220          -23.6298919947      -16.0880085447        1.1501981105  MEMB      38              0.0000000000
      4155        38  SAPE      H20R          -24.6772467302      -15.9559492569        0.7849980293  MEMB      38              0.0000000000
      4156        38  SAPE      H20S          -23.5737060443      -17.0045786679        1.7439066401  MEMB      38              0.0000000000
      4157        38  SAPE      H20T          -22.9397414334      -16.2649019784        0.2987841653  MEMB      38              0.0000000000
      4158        38  SAPE      C33           -26.7323216306      -11.6518684435       15.8205697334  MEMB      38              0.0000000000
      4159        38  SAPE      H3X           -26.8709201313      -12.0405510017       14.7850044656  MEMB      38              0.0000000000
      4160        38  SAPE      H3Y           -25.7297373814      -11.1833507191       15.9182327265  MEMB      38              0.0000000000
      4161        38  SAPE      C34           -27.7319211452      -10.5581605621       15.9928168672  MEMB      38              0.0000000000
      4162        38  SAPE      H4X           -27.6186008281      -10.0063464503       16.9604125782  MEMB      38              0.0000000000
      4163        38  SAPE      H4Y           -28.7998467716      -10.8759527240       15.9431474611  MEMB      38              0.0000000000
      4164        38  SAPE      C35           -27.4876840926       -9.6641366693       14.8099222935  MEMB      38              0.0000000000
      4165        38  SAPE      H5X           -28.3376826016       -9.0658208839       15.1659467516  MEMB      38              0.0000000000
      4166        38  SAPE      H5Y           -27.8117841446      -10.0109205280       13.8180551926  MEMB      38              0.0000000000
      4167        38  SAPE      C36           -26.0247776414       -9.1054419369       14.6312126521  MEMB      38              0.0000000000
      4168        38  SAPE      H6X           -25.3081855540       -9.9040416574       14.4026102304  MEMB      38              0.0000000000
      4169        38  SAPE      H6Y           -25.7450372207       -8.4678732116       15.5117728967  MEMB      38              0.0000000000
      4170        38  SAPE      C37           -25.6811082661       -8.1843706905       13.4553962041  MEMB      38              0.0000000000
      4171        38  SAPE      H7X           -25.0968649526       -7.2734141865       13.7282588863  MEMB      38              0.0000000000
      4172        38  SAPE      H7Y           -26.7079902352       -8.0016339799       13.3381748712  MEMB      38              0.0000000000
      4173        38  SAPE      C38           -25.8474469385       -8.3982290168       11.9644049303  MEMB      38              0.0000000000
      4174        38  SAPE      H8X           -25.7797238649       -7.3889201602       11.4776778725  MEMB      38              0.0000000000
      4175        38  SAPE      H8Y           -26.8417751759       -8.7648019024       11.5960990183  MEMB      38              0.0000000000
      4176        38  SAPE      C39           -24.7322869554       -9.3059055724       11.6549103607  MEMB      38              0.0000000000
      4177        38  SAPE      H9X           -25.1206919519      -10.3332439149       11.8274872489  MEMB      38              0.0000000000
      4178        38  SAPE      H9Y           -23.8973202427       -9.1579507575       12.3838254398  MEMB      38              0.0000000000
      4179        38  SAPE      C310          -24.2528065507       -8.9610816440       10.2833677485  MEMB      38              0.0000000000
      4180        38  SAPE      H10X          -23.8876317236       -7.9036625882       10.2507671293  MEMB      38              0.0000000000
      4181        38  SAPE      H10Y          -25.0944205269       -9.0648949583        9.5703216055  MEMB      38              0.0000000000
      4182        38  SAPE      C311          -23.0708680399       -9.7942792254        9.9079410638  MEMB      38              0.0000000000
      4183        38  SAPE      H11X          -23.2417742339      -10.8709117146       10.0660403119  MEMB      38              0.0000000000
      4184        38  SAPE      H11Y          -22.2688529597       -9.4547608250       10.5795496703  MEMB      38              0.0000000000
      4185        38  SAPE      C312          -22.7120607375       -9.4879720011        8.4909732104  MEMB      38              0.0000000000
      4186        38  SAPE      H12X          -22.6108199483       -8.3809261226        8.3417033985  MEMB      38              0.0000000000
      4187        38  SAPE      H12Y          -23.4244802418       -9.9158098612        7.7625759587  MEMB      38              0.0000000000
      4188        38  SAPE      C313          -21.3979081000       -9.9818826497        8.1108383265  MEMB      38              0.0000000000
      4189        38  SAPE      H13X          -21.1437810235      -11.0647906061        8.2552539567  MEMB      38              0.0000000000
      4190        38  SAPE      H13Y          -20.6739751954       -9.3100937470        8.6338318374  MEMB      38              0.0000000000
      4191        38  SAPE      C314          -21.1705523483       -9.4678223723        6.7560629229  MEMB      38              0.0000000000
      4192        38  SAPE      H14X          -20.1566972793       -9.8551234606        6.8059886044  MEMB      38              0.0000000000
      4193        38  SAPE      H14Y          -21.1048283480       -8.3610774471        6.6960460686  MEMB      38              0.0000000000
      4194        38  SAPE      C315          -21.8589358979      -10.0767292873        5.5304981793  MEMB      38              0.0000000000
      4195        38  SAPE      H15X          -22.9332501047      -10.1767647427        5.7260317458  MEMB      38              0.0000000000
      4196        38  SAPE      H15Y          -21.3999084135      -11.0889429876        5.3723336206  MEMB      38              0.0000000000
      4197        38  SAPE      C316          -21.7640615701       -9.1354700301        4.2871363351  MEMB      38              0.0000000000
      4198        38  SAPE      H16X          -20.8269560570       -8.7959021297        3.8624519693  MEMB      38              0.0000000000
      4199        38  SAPE      H16Y          -21.8136178991       -8.0813947425        4.6021437888  MEMB      38              0.0000000000
      4200        38  SAPE      C317          -22.3196774491       -9.7238892905        2.9664082228  MEMB      38              0.0000000000
      4201        38  SAPE      H17X          -22.1119545322       -8.9187943097        2.2185404976  MEMB      38              0.0000000000
      4202        38  SAPE      H17Y          -23.3705454002       -9.8256610123        3.2711295723  MEMB      38              0.0000000000
      4203        38  SAPE      C318          -21.8673649030      -11.1143803740        2.3817286315  MEMB      38              0.0000000000
      4204        38  SAPE      H18X          -22.4562833049      -11.4994878995        1.5451333080  MEMB      38              0.0000000000
      4205        38  SAPE      H18Y          -21.7454430183      -11.8490300253        3.2153559470  MEMB      38              0.0000000000
      4206        38  SAPE      H18Z          -20.8888128448      -11.0879353826        1.8474258092  MEMB      38              0.0000000000
      4207        39  POPC      N              16.4736939030       22.1494164912       20.6921220771  MEMB      39              0.0000000000
      4208        39  POPC      C12            16.9561111472       21.3670122917       19.4759322155  MEMB      39              0.0000000000
      4209        39  POPC      H12A           17.1683253179       20.3520878666       19.8022544579  MEMB      39              0.0000000000
      4210        39  POPC      H12B           17.8877936048       21.8143874605       19.1576169806  MEMB      39              0.0000000000
      4211        39  POPC      C13            15.3127554644       21.4517841461       21.2725774057  MEMB      39              0.0000000000
      4212        39  POPC      H13A           15.0105220103       21.9361099391       22.1903789701  MEMB      39              0.0000000000
      4213        39  POPC      H13B           14.4689198553       21.4127072850       20.5815092681  MEMB      39              0.0000000000
      4214        39  POPC      H13C           15.5843714437       20.4270911014       21.5293609889  MEMB      39              0.0000000000
      4215        39  POPC      C14            17.5554602469       22.1510026471       21.7481506102  MEMB      39              0.0000000000
      4216        39  POPC      H14A           17.1922974762       22.1713481976       22.7769324383  MEMB      39              0.0000000000
      4217        39  POPC      H14B           18.0822406486       21.2034557639       21.7353319156  MEMB      39              0.0000000000
      4218        39  POPC      H14C           18.2141667990       22.9824934433       21.5669169093  MEMB      39              0.0000000000
      4219        39  POPC      C15            16.0674306139       23.5435523450       20.3278095754  MEMB      39              0.0000000000
      4220        39  POPC      H15A           15.1959479628       23.5590990715       19.6748443207  MEMB      39              0.0000000000
      4221        39  POPC      H15B           16.8674364680       24.0765421817       19.8431995117  MEMB      39              0.0000000000
      4222        39  POPC      H15C           15.7473741579       24.0869220440       21.2098390065  MEMB      39              0.0000000000
      4223        39  POPC      C11            16.0502793151       21.2515510029       18.2049075292  MEMB      39              0.0000000000
      4224        39  POPC      H11A           16.6616982940       20.7813601906       17.3973264549  MEMB      39              0.0000000000
      4225        39  POPC      H11B           15.7990805520       22.2835058168       17.8739752126  MEMB      39              0.0000000000
      4226        39  POPC      P              13.6125058282       20.6080201378       17.4227716456  MEMB      39              0.0000000000
      4227        39  POPC      O13            13.9832952875       21.4507227902       16.2655286733  MEMB      39              0.0000000000
      4228        39  POPC      O14            12.4558298763       21.0817732123       18.2216713300  MEMB      39              0.0000000000
      4229        39  POPC      O12            14.8704942181       20.4683732051       18.4087105040  MEMB      39              0.0000000000
      4230        39  POPC      O11            13.3016536129       19.1305852766       16.9262446094  MEMB      39              0.0000000000
      4231        39  POPC      C1             14.3145876700       18.1901495408       16.5639767954  MEMB      39              0.0000000000
      4232        39  POPC      HA             13.9020302518       17.1817651375       16.7633747032  MEMB      39              0.0000000000
      4233        39  POPC      HB             15.2390888524       18.3049564603       17.1811631566  MEMB      39              0.0000000000
      4234        39  POPC      C2             14.7767615423       18.1785175230       15.0681793132  MEMB      39              0.0000000000
      4235        39  POPC      HS             15.4886913696       17.3266513872       14.9733473466  MEMB      39              0.0000000000
      4236        39  POPC      O21            15.4427425862       19.4007321326       14.7697603294  MEMB      39              0.0000000000
      4237        39  POPC      C21            16.2249002500       19.3070384935       13.7329768595  MEMB      39              0.0000000000
      4238        39  POPC      O22            16.5820833925       18.2918960401       13.1602882186  MEMB      39              0.0000000000
      4239        39  POPC      C22            16.7681539591       20.6315660414       13.4376373058  MEMB      39              0.0000000000
      4240        39  POPC      H2R            17.1924647698       21.0386806385       14.3885306773  MEMB      39              0.0000000000
      4241        39  POPC      H2S            15.9941585204       21.3448172464       13.0787007356  MEMB      39              0.0000000000
      4242        39  POPC      C3             13.6616607395       17.9503164448       14.0064552816  MEMB      39              0.0000000000
      4243        39  POPC      HX             13.1545687677       17.0000118000       14.2514573572  MEMB      39              0.0000000000
      4244        39  POPC      HY             14.1329652529       17.7921154674       13.0083997637  MEMB      39              0.0000000000
      4245        39  POPC      O31            12.6899711569       19.0005776317       13.9863615154  MEMB      39              0.0000000000
      4246        39  POPC      C31            12.7423099847       19.7996157848       12.9428576519  MEMB      39              0.0000000000
      4247        39  POPC      O32            13.4552247156       19.6859832968       11.9642337439  MEMB      39              0.0000000000
      4248        39  POPC      C32            11.5936512563       20.7592642412       13.1116637303  MEMB      39              0.0000000000
      4249        39  POPC      H2X            11.6151042044       21.1448967247       14.1453637743  MEMB      39              0.0000000000
      4250        39  POPC      H2Y            10.7400694486       20.1096887146       13.0444053510  MEMB      39              0.0000000000
      4251        39  POPC      C23            17.8467922533       20.3446367077       12.3313096558  MEMB      39              0.0000000000
      4252        39  POPC      H3R            17.4288047120       19.9275301008       11.4051990913  MEMB      39              0.0000000000
      4253        39  POPC      H3S            18.7680796212       19.8517002208       12.7607487237  MEMB      39              0.0000000000
      4254        39  POPC      C24            18.3378331116       21.5786233146       11.6703581738  MEMB      39              0.0000000000
      4255        39  POPC      H4R            19.4335581864       21.8270882155       11.7042426337  MEMB      39              0.0000000000
      4256        39  POPC      H4S            18.2251289130       21.7552833923       12.6949532254  MEMB      39              0.0000000000
      4257        39  POPC      C25            17.3133001681       22.4684321984       10.8627105674  MEMB      39              0.0000000000
      4258        39  POPC      H5R            16.7648411275       23.3364751742       11.3099200362  MEMB      39              0.0000000000
      4259        39  POPC      H5S            16.2709536558       22.3372516046       11.0658617228  MEMB      39              0.0000000000
      4260        39  POPC      C26            18.0819349264       23.0574666462        9.6887111400  MEMB      39              0.0000000000
      4261        39  POPC      H6R            19.1902285575       23.1617393351        9.8989735614  MEMB      39              0.0000000000
      4262        39  POPC      H6S            17.8105083611       24.0292324005        9.1972433698  MEMB      39              0.0000000000
      4263        39  POPC      C27            18.3968027281       21.9509094694        8.9110349748  MEMB      39              0.0000000000
      4264        39  POPC      H7R            17.4339060158       21.4625280990        8.7524140454  MEMB      39              0.0000000000
      4265        39  POPC      H7S            19.1293090176       21.3017553648        9.4827724888  MEMB      39              0.0000000000
      4266        39  POPC      C28            19.0285995908       22.5544437634        7.7406791595  MEMB      39              0.0000000000
      4267        39  POPC      H8R            19.0536983076       21.5202509012        7.3506834940  MEMB      39              0.0000000000
      4268        39  POPC      H8S            19.9725053619       23.0223509981        8.0643642594  MEMB      39              0.0000000000
      4269        39  POPC      C29            18.4237037321       23.5985581335        6.8698177189  MEMB      39              0.0000000000
      4270        39  POPC      H91            18.4787838744       24.5956957751        7.3022012986  MEMB      39              0.0000000000
      4271        39  POPC      C210           17.9787541020       23.4968433921        5.6297215615  MEMB      39              0.0000000000
      4272        39  POPC      H101           17.6228286217       24.3737369330        5.1150177409  MEMB      39              0.0000000000
      4273        39  POPC      C211           17.9837950019       22.2983715393        4.8001723943  MEMB      39              0.0000000000
      4274        39  POPC      H11R           17.0279070737       21.7650186162        4.6429830454  MEMB      39              0.0000000000
      4275        39  POPC      H11S           18.6898531742       21.6269267738        5.3413528049  MEMB      39              0.0000000000
      4276        39  POPC      C212           18.5144580655       22.5457472773        3.4173472605  MEMB      39              0.0000000000
      4277        39  POPC      H12R           18.5714315954       21.6062580857        2.8606384809  MEMB      39              0.0000000000
      4278        39  POPC      H12S           19.4676218768       23.1169839928        3.4700311022  MEMB      39              0.0000000000
      4279        39  POPC      C213           18.1192694911       23.4782450308        2.4164754772  MEMB      39              0.0000000000
      4280        39  POPC      H13R           18.1396842292       24.4222210179        3.0070791626  MEMB      39              0.0000000000
      4281        39  POPC      H13S           17.1239504405       23.2431850597        2.0933604850  MEMB      39              0.0000000000
      4282        39  POPC      C214           19.1511470499       23.3771286729        1.2516797094  MEMB      39              0.0000000000
      4283        39  POPC      H14R           20.1347052712       23.8796177846        1.4444226886  MEMB      39              0.0000000000
      4284        39  POPC      H14S           18.6787899790       23.8591770829        0.3676450453  MEMB      39              0.0000000000
      4285        39  POPC      C215           19.2177526796       22.1663896661        0.4487926809  MEMB      39              0.0000000000
      4286        39  POPC      H15R           18.1642117770       22.0300195822        0.1034435117  MEMB      39              0.0000000000
      4287        39  POPC      H15S           19.5891781758       21.3526274427        1.0250926210  MEMB      39              0.0000000000
      4288        39  POPC      C216           20.2246254199       22.3472310691       -0.6235041268  MEMB      39              0.0000000000
      4289        39  POPC      H16R           20.3210376111       23.4405095714       -0.9283337849  MEMB      39              0.0000000000
      4290        39  POPC      H16S           20.0924879333       21.5868068281       -1.4547029845  MEMB      39              0.0000000000
      4291        39  POPC      C217           21.5287017742       22.3367379298       -0.2999836636  MEMB      39              0.0000000000
      4292        39  POPC      H17R           21.8117113691       23.0792771651        0.4209350904  MEMB      39              0.0000000000
      4293        39  POPC      H17S           21.8914773383       22.6016273305       -1.2897573472  MEMB      39              0.0000000000
      4294        39  POPC      C218           21.8675488788       21.0289079366       -0.0480064015  MEMB      39              0.0000000000
      4295        39  POPC      H18R           22.8456081208       20.5903308693        0.2016569666  MEMB      39              0.0000000000
      4296        39  POPC      H18S           21.8501154163       20.6641488423       -0.9753769850  MEMB      39              0.0000000000
      4297        39  POPC      H18T           20.9673991343       20.4454748284        0.0517085251  MEMB      39              0.0000000000
      4298        39  POPC      C33            11.5773496456       21.9246230505       12.1395944633  MEMB      39              0.0000000000
      4299        39  POPC      H3X            10.6195070816       22.5013972568       12.1846209174  MEMB      39              0.0000000000
      4300        39  POPC      H3Y            11.7275474818       21.6136163752       11.0782253084  MEMB      39              0.0000000000
      4301        39  POPC      C34            12.6395448426       22.8624320531       12.6375843779  MEMB      39              0.0000000000
      4302        39  POPC      H4X            13.6536978710       22.4219648829       12.5152501980  MEMB      39              0.0000000000
      4303        39  POPC      H4Y            12.4332265710       23.1524090170       13.6953016232  MEMB      39              0.0000000000
      4304        39  POPC      C35            12.6169343977       24.0921184798       11.8289302231  MEMB      39              0.0000000000
      4305        39  POPC      H5X            13.3922652004       24.7499624870       12.2301222315  MEMB      39              0.0000000000
      4306        39  POPC      H5Y            11.6334565726       24.5920721989       11.9770046118  MEMB      39              0.0000000000
      4307        39  POPC      C36            12.8449101780       23.7542672211       10.3633959240  MEMB      39              0.0000000000
      4308        39  POPC      H6X            12.5950478079       24.5146108993        9.6660430092  MEMB      39              0.0000000000
      4309        39  POPC      H6Y            11.9711326043       23.2879634607        9.9305194469  MEMB      39              0.0000000000
      4310        39  POPC      C37            14.2508992302       23.3215657314        9.9693070515  MEMB      39              0.0000000000
      4311        39  POPC      H7X            14.4317365020       22.3211299621       10.4035002851  MEMB      39              0.0000000000
      4312        39  POPC      H7Y            15.0130678364       24.0264405543       10.4040646060  MEMB      39              0.0000000000
      4313        39  POPC      C38            14.4386983240       23.2293977231        8.4455004670  MEMB      39              0.0000000000
      4314        39  POPC      H8X            15.4473263335       22.8658478033        8.1667887521  MEMB      39              0.0000000000
      4315        39  POPC      H8Y            14.3218554107       24.1722238354        7.9528253969  MEMB      39              0.0000000000
      4316        39  POPC      C39            13.2916715898       22.7453285366        7.5814319575  MEMB      39              0.0000000000
      4317        39  POPC      H9X            13.3814874024       23.2442946562        6.5784402987  MEMB      39              0.0000000000
      4318        39  POPC      H9Y            12.3142826899       23.1114981376        7.9587849495  MEMB      39              0.0000000000
      4319        39  POPC      C310           13.4880757162       21.2650714239        7.4263679392  MEMB      39              0.0000000000
      4320        39  POPC      H10X           13.2985291267       20.7720995380        8.4105447553  MEMB      39              0.0000000000
      4321        39  POPC      H10Y           14.5339289816       21.0697789490        7.1241863778  MEMB      39              0.0000000000
      4322        39  POPC      C311           12.6256549982       20.6948460104        6.3402631376  MEMB      39              0.0000000000
      4323        39  POPC      H11X           12.5514827524       21.2486813019        5.4036398966  MEMB      39              0.0000000000
      4324        39  POPC      H11Y           11.6381884351       20.9272604624        6.7735686684  MEMB      39              0.0000000000
      4325        39  POPC      C312           12.9490919151       19.2268583519        6.0062083156  MEMB      39              0.0000000000
      4326        39  POPC      H12X           12.0763649520       18.8580285963        5.4139804918  MEMB      39              0.0000000000
      4327        39  POPC      H12Y           13.1082542867       18.6124367632        6.9396412671  MEMB      39              0.0000000000
      4328        39  POPC      C313           14.1091016100       18.8389409537        5.2248443133  MEMB      39              0.0000000000
      4329        39  POPC      H13X           14.1795204818       17.7185405080        5.2931253648  MEMB      39              0.0000000000
      4330        39  POPC      H13Y           14.9459563559       19.3386292481        5.7445049599  MEMB      39              0.0000000000
      4331        39  POPC      C314           13.8757226256       19.2424461903        3.8078980336  MEMB      39              0.0000000000
      4332        39  POPC      H14X           13.8149246581       20.3525874116        3.7536192708  MEMB      39              0.0000000000
      4333        39  POPC      H14Y           12.9067720168       18.8354054637        3.4164449631  MEMB      39              0.0000000000
      4334        39  POPC      C315           15.0429415297       18.7186027489        3.0219402313  MEMB      39              0.0000000000
      4335        39  POPC      H15X           15.1781537360       17.6243077573        3.1803934371  MEMB      39              0.0000000000
      4336        39  POPC      H15Y           15.9531261537       19.2435528409        3.3589354814  MEMB      39              0.0000000000
      4337        39  POPC      C316           14.7798946318       18.9706965274        1.5908481608  MEMB      39              0.0000000000
      4338        39  POPC      H16X           15.5545607311       18.5643256935        0.9056019311  MEMB      39              0.0000000000
      4339        39  POPC      H16Y           14.5700946388       20.0428186606        1.4146064858  MEMB      39              0.0000000000
      4340        39  POPC      H16Z           13.8376542784       18.4433233422        1.3730384597  MEMB      39              0.0000000000
      4341        40  CHL1      C3             -5.7143858641       25.9644297711       17.3778158545  MEMB      40              0.0000000000
      4342        40  CHL1      H3             -6.3165645059       26.8952175216       17.4731345573  MEMB      40              0.0000000000
      4343        40  CHL1      O3             -5.5129531287       25.4358448890       18.6650322899  MEMB      40              0.0000000000
      4344        40  CHL1      H3'            -5.2332623054       26.2097085559       19.1977263017  MEMB      40              0.0000000000
      4345        40  CHL1      C4             -6.4158744208       24.9080391584       16.5025956359  MEMB      40              0.0000000000
      4346        40  CHL1      H4A            -5.8035925878       23.9846078039       16.5373473634  MEMB      40              0.0000000000
      4347        40  CHL1      H4B            -7.4025778342       24.6024434594       16.9054951478  MEMB      40              0.0000000000
      4348        40  CHL1      C5             -6.5644013571       25.3605439375       15.0807265822  MEMB      40              0.0000000000
      4349        40  CHL1      C6             -7.7607134237       25.4095682512       14.4689735512  MEMB      40              0.0000000000
      4350        40  CHL1      H6             -8.6729177410       25.1320225904       15.0092262389  MEMB      40              0.0000000000
      4351        40  CHL1      C7             -7.9428166915       25.7386025075       13.0255636757  MEMB      40              0.0000000000
      4352        40  CHL1      H7A            -8.7157381613       25.0933021801       12.5507907313  MEMB      40              0.0000000000
      4353        40  CHL1      H7B            -8.2674409144       26.7941537798       12.9400524777  MEMB      40              0.0000000000
      4354        40  CHL1      C8             -6.6041649351       25.6322049193       12.2805487225  MEMB      40              0.0000000000
      4355        40  CHL1      H8             -6.3308233674       24.5589005970       12.1725479452  MEMB      40              0.0000000000
      4356        40  CHL1      C14            -6.7842932364       26.2516061204       10.9187620888  MEMB      40              0.0000000000
      4357        40  CHL1      H14            -6.9935084971       27.3399498190       11.1049875232  MEMB      40              0.0000000000
      4358        40  CHL1      C15            -7.9436316655       25.7886918978       10.0323356639  MEMB      40              0.0000000000
      4359        40  CHL1      H15A           -7.9408988873       24.6822506990       10.0874573159  MEMB      40              0.0000000000
      4360        40  CHL1      H15B           -8.9246677115       26.2119036624       10.3257105983  MEMB      40              0.0000000000
      4361        40  CHL1      C16            -7.5210193289       26.1852650577        8.6358259023  MEMB      40              0.0000000000
      4362        40  CHL1      H16A           -7.5012475885       25.2851340286        7.9744591454  MEMB      40              0.0000000000
      4363        40  CHL1      H16B           -8.1175408976       26.9948033630        8.1614799665  MEMB      40              0.0000000000
      4364        40  CHL1      C17            -6.0752695540       26.6877994225        8.7622029393  MEMB      40              0.0000000000
      4365        40  CHL1      H17            -6.1799785326       27.7966695350        8.9213481355  MEMB      40              0.0000000000
      4366        40  CHL1      C13            -5.5345650183       26.1693463898       10.0827771543  MEMB      40              0.0000000000
      4367        40  CHL1      C18            -4.9688539284       24.7772922840        9.8288555081  MEMB      40              0.0000000000
      4368        40  CHL1      H18A           -5.6987413359       24.2280865188        9.2073251069  MEMB      40              0.0000000000
      4369        40  CHL1      H18B           -3.9904716854       24.8345294484        9.3007816279  MEMB      40              0.0000000000
      4370        40  CHL1      H18C           -4.7890053607       24.2643235351       10.7880318538  MEMB      40              0.0000000000
      4371        40  CHL1      C12            -4.5612587603       27.0038192424       10.8471601524  MEMB      40              0.0000000000
      4372        40  CHL1      H12A           -3.5826440775       27.0243627709       10.3208813700  MEMB      40              0.0000000000
      4373        40  CHL1      H12B           -5.0821773046       27.9962271707       10.9613171402  MEMB      40              0.0000000000
      4374        40  CHL1      C11            -4.2229193456       26.5843719931       12.2634559777  MEMB      40              0.0000000000
      4375        40  CHL1      H11A           -3.6089094691       25.6745325337       12.1495820768  MEMB      40              0.0000000000
      4376        40  CHL1      H11B           -3.6045934805       27.3571288722       12.7851555191  MEMB      40              0.0000000000
      4377        40  CHL1      C9             -5.5074549381       26.3834934257       13.0646547670  MEMB      40              0.0000000000
      4378        40  CHL1      H9             -5.9021436298       27.4280175317       13.1940128285  MEMB      40              0.0000000000
      4379        40  CHL1      C10            -5.2373595373       25.7868337085       14.4592620629  MEMB      40              0.0000000000
      4380        40  CHL1      C19            -4.3410443820       24.5283097878       14.3109099663  MEMB      40              0.0000000000
      4381        40  CHL1      H19A           -4.2568579915       23.9112832328       15.2249102576  MEMB      40              0.0000000000
      4382        40  CHL1      H19B           -4.7453274417       23.8733919624       13.5157636038  MEMB      40              0.0000000000
      4383        40  CHL1      H19C           -3.3121724931       24.8512586301       14.0541066350  MEMB      40              0.0000000000
      4384        40  CHL1      C1             -4.5351751530       26.8393370721       15.3778829588  MEMB      40              0.0000000000
      4385        40  CHL1      H1A            -3.5298092848       27.1183407986       14.9933689655  MEMB      40              0.0000000000
      4386        40  CHL1      H1B            -5.1846866684       27.7471026944       15.3728373824  MEMB      40              0.0000000000
      4387        40  CHL1      C2             -4.3553376181       26.3896700491       16.8335429271  MEMB      40              0.0000000000
      4388        40  CHL1      H2A            -3.9747682576       27.2345891410       17.4509884808  MEMB      40              0.0000000000
      4389        40  CHL1      H2B            -3.6050829631       25.5766783003       16.9335830725  MEMB      40              0.0000000000
      4390        40  CHL1      C20            -5.3835396915       26.3549120069        7.4345331556  MEMB      40              0.0000000000
      4391        40  CHL1      H20            -5.1787003350       25.3146490840        7.1625086059  MEMB      40              0.0000000000
      4392        40  CHL1      C21            -3.9698179592       26.7502106081        7.4095122976  MEMB      40              0.0000000000
      4393        40  CHL1      H21A           -4.2888385150       27.5153909643        8.0763041744  MEMB      40              0.0000000000
      4394        40  CHL1      H21B           -3.5729795278       27.1430588634        6.4894021785  MEMB      40              0.0000000000
      4395        40  CHL1      H21C           -3.1648270731       26.2199911029        7.9270935385  MEMB      40              0.0000000000
      4396        40  CHL1      C22            -6.2653229426       26.9776386890        6.3709356671  MEMB      40              0.0000000000
      4397        40  CHL1      H22A           -7.1932758483       26.4269013380        6.3044580105  MEMB      40              0.0000000000
      4398        40  CHL1      H22B           -6.4755463976       28.0866886013        6.4724384857  MEMB      40              0.0000000000
      4399        40  CHL1      C23            -5.7771368120       26.5776941544        5.0397187610  MEMB      40              0.0000000000
      4400        40  CHL1      H23A           -5.2221146980       27.4471236995        5.1751496980  MEMB      40              0.0000000000
      4401        40  CHL1      H23B           -4.9205404325       25.8820466702        4.9537172437  MEMB      40              0.0000000000
      4402        40  CHL1      C24            -6.7644810630       26.7915536048        3.8646153200  MEMB      40              0.0000000000
      4403        40  CHL1      H24A           -7.3950650009       25.8987251153        3.9132603442  MEMB      40              0.0000000000
      4404        40  CHL1      H24B           -7.2765438922       27.7732362423        3.9920395818  MEMB      40              0.0000000000
      4405        40  CHL1      C25            -6.2882353552       26.8118992919        2.4010740147  MEMB      40              0.0000000000
      4406        40  CHL1      H25            -5.8450483413       27.8186814958        2.2616909520  MEMB      40              0.0000000000
      4407        40  CHL1      C26            -5.3781087117       25.6466573540        2.1159662531  MEMB      40              0.0000000000
      4408        40  CHL1      H26A           -4.7816978199       25.7579037327        1.1647023647  MEMB      40              0.0000000000
      4409        40  CHL1      H26B           -4.7515856479       25.8224132766        2.9893590785  MEMB      40              0.0000000000
      4410        40  CHL1      H26C           -5.3306008965       24.6948073086        2.6034993896  MEMB      40              0.0000000000
      4411        40  CHL1      C27            -7.2373694116       26.7470269620        1.2970444346  MEMB      40              0.0000000000
      4412        40  CHL1      H27A           -8.0004187208       27.5092597793        1.4942910324  MEMB      40              0.0000000000
      4413        40  CHL1      H27B           -6.6547776355       26.9150810803        0.3468358245  MEMB      40              0.0000000000
      4414        40  CHL1      H27C           -7.5820234431       25.7031303777        1.4079060086  MEMB      40              0.0000000000
      4415        41  OSM       N               2.8696545046      -25.4043084008       22.5483280906  MEMB      41              0.0000000000
      4416        41  OSM       C15             3.9827325706      -24.3973669683       22.5254796234  MEMB      41              0.0000000000
      4417        41  OSM       H15A            4.7053885402      -24.5950259200       23.3016561364  MEMB      41              0.0000000000
      4418        41  OSM       H15B            3.6233404218      -23.3936247834       22.6852893968  MEMB      41              0.0000000000
      4419        41  OSM       H15C            4.4997071162      -24.3955715071       21.5664716890  MEMB      41              0.0000000000
      4420        41  OSM       C14             2.5021769398      -25.7337379810       23.9556270783  MEMB      41              0.0000000000
      4421        41  OSM       H14A            1.7979342924      -25.0120471474       24.3574190805  MEMB      41              0.0000000000
      4422        41  OSM       H14B            3.3730599302      -25.7667323951       24.5923180871  MEMB      41              0.0000000000
      4423        41  OSM       H14C            1.9703235417      -26.6834619625       23.9663860762  MEMB      41              0.0000000000
      4424        41  OSM       C13             1.6367838106      -24.8142239767       21.9115000695  MEMB      41              0.0000000000
      4425        41  OSM       H13A            1.7909887648      -24.5720927668       20.8588779345  MEMB      41              0.0000000000
      4426        41  OSM       H13B            1.3461428228      -23.9077316886       22.4101724472  MEMB      41              0.0000000000
      4427        41  OSM       H13C            0.7918814506      -25.5128125459       21.8632117607  MEMB      41              0.0000000000
      4428        41  OSM       C12             3.2895668234      -26.6877349850       21.8486561220  MEMB      41              0.0000000000
      4429        41  OSM       H12A            2.5466661702      -27.4678470420       22.0187606328  MEMB      41              0.0000000000
      4430        41  OSM       H12B            4.2198290806      -27.0780457068       22.2534760216  MEMB      41              0.0000000000
      4431        41  OSM       C11             3.4098894802      -26.5946303277       20.3209479156  MEMB      41              0.0000000000
      4432        41  OSM       H11A            3.9519505804      -27.5089387677       19.9859271774  MEMB      41              0.0000000000
      4433        41  OSM       H11B            4.0126414388      -25.7037256740       20.0325488788  MEMB      41              0.0000000000
      4434        41  OSM       P               1.0959405908      -27.7055540906       19.6331705822  MEMB      41              0.0000000000
      4435        41  OSM       O13             1.8467544351      -28.9673372418       19.5738318718  MEMB      41              0.0000000000
      4436        41  OSM       O14             0.1515549689      -27.5425543545       20.7637127652  MEMB      41              0.0000000000
      4437        41  OSM       O11             0.3761945954      -27.3654690199       18.2450957865  MEMB      41              0.0000000000
      4438        41  OSM       O12             2.1327823555      -26.4934891462       19.7097060249  MEMB      41              0.0000000000
      4439        41  OSM       C1S             1.1878983871      -26.8537380252       17.1874452123  MEMB      41              0.0000000000
      4440        41  OSM       H1S             2.1387211318      -27.4289042738       17.1035364344  MEMB      41              0.0000000000
      4441        41  OSM       H1T             1.4268608931      -25.7897866960       17.4193551445  MEMB      41              0.0000000000
      4442        41  OSM       NF              1.4242397904      -26.5667712319       14.7444353977  MEMB      41              0.0000000000
      4443        41  OSM       HNF             1.4358037015      -25.6180185181       14.4755312257  MEMB      41              0.0000000000
      4444        41  OSM       C2S             0.4842055376      -26.9314050848       15.7940258535  MEMB      41              0.0000000000
      4445        41  OSM       H2S             0.1452687516      -27.9739942283       15.5980106482  MEMB      41              0.0000000000
      4446        41  OSM       C3S            -0.7605271390      -26.0083539750       15.8044791669  MEMB      41              0.0000000000
      4447        41  OSM       H3S            -0.4870656676      -24.9895255232       16.1721650770  MEMB      41              0.0000000000
      4448        41  OSM       O3             -1.7757806167      -26.5474170939       16.6263798591  MEMB      41              0.0000000000
      4449        41  OSM       HO3            -1.3047519253      -27.2257414762       17.1314281332  MEMB      41              0.0000000000
      4450        41  OSM       C4S            -1.3345547960      -25.8880092418       14.4213777911  MEMB      41              0.0000000000
      4451        41  OSM       H4S            -2.0890993684      -26.6322138954       14.1393756061  MEMB      41              0.0000000000
      4452        41  OSM       C5S            -1.0130691394      -24.9168277353       13.5579183076  MEMB      41              0.0000000000
      4453        41  OSM       H5S            -0.3202308118      -24.1251848232       13.8950494296  MEMB      41              0.0000000000
      4454        41  OSM       C6S            -1.6099215458      -24.8077975389       12.1825057696  MEMB      41              0.0000000000
      4455        41  OSM       H6S            -2.0576996686      -23.7901849151       12.1632763348  MEMB      41              0.0000000000
      4456        41  OSM       H6T            -2.4775820429      -25.4845184161       12.0456727582  MEMB      41              0.0000000000
      4457        41  OSM       C7S            -0.6998641728      -25.0194996607       10.9336471703  MEMB      41              0.0000000000
      4458        41  OSM       H7S             0.2968126918      -24.5203723742       10.9919292189  MEMB      41              0.0000000000
      4459        41  OSM       H7T            -1.2599959077      -24.6046678394       10.0613610953  MEMB      41              0.0000000000
      4460        41  OSM       C8S            -0.3077014267      -26.4317927990       10.6619999175  MEMB      41              0.0000000000
      4461        41  OSM       H8S            -1.2634355485      -26.9750666729       10.5313151507  MEMB      41              0.0000000000
      4462        41  OSM       H8T             0.2293535630      -26.7680339232       11.5763702819  MEMB      41              0.0000000000
      4463        41  OSM       C9S             0.5473472046      -26.5986791519        9.3995360666  MEMB      41              0.0000000000
      4464        41  OSM       H9S             1.5488391362      -26.1175919195        9.4862042382  MEMB      41              0.0000000000
      4465        41  OSM       H9T             0.0191772301      -26.1211518605        8.5415935598  MEMB      41              0.0000000000
      4466        41  OSM       C10S            0.7509826152      -28.0824052003        9.1149092711  MEMB      41              0.0000000000
      4467        41  OSM       H10S           -0.2439002105      -28.5694676830        9.0047387451  MEMB      41              0.0000000000
      4468        41  OSM       H10T            1.2785740307      -28.5575094867        9.9675554239  MEMB      41              0.0000000000
      4469        41  OSM       C11S            1.5798275606      -28.3645925728        7.8699933213  MEMB      41              0.0000000000
      4470        41  OSM       H11S            2.1141435699      -29.3290083880        8.0382307526  MEMB      41              0.0000000000
      4471        41  OSM       H11T            2.3398362153      -27.5725876620        7.7266281606  MEMB      41              0.0000000000
      4472        41  OSM       C12S            0.6694567177      -28.5319065977        6.6597861404  MEMB      41              0.0000000000
      4473        41  OSM       H12S           -0.0484672183      -27.6854595927        6.5942770633  MEMB      41              0.0000000000
      4474        41  OSM       H12T            0.0718312796      -29.4569665671        6.8109348662  MEMB      41              0.0000000000
      4475        41  OSM       C13S            1.4051156623      -28.6121966400        5.3268996807  MEMB      41              0.0000000000
      4476        41  OSM       H13S            2.1785413624      -29.4119945277        5.3512836143  MEMB      41              0.0000000000
      4477        41  OSM       H13T            1.9065431242      -27.6315549658        5.1813788932  MEMB      41              0.0000000000
      4478        41  OSM       C14S            0.3975799838      -28.9438001367        4.2193494638  MEMB      41              0.0000000000
      4479        41  OSM       H14S           -0.2700036393      -28.0705970469        4.0402939211  MEMB      41              0.0000000000
      4480        41  OSM       H14T           -0.2091535757      -29.7980207249        4.5988555205  MEMB      41              0.0000000000
      4481        41  OSM       C15S            0.9965548699      -29.3857561228        2.8852820920  MEMB      41              0.0000000000
      4482        41  OSM       H15S            0.1680569215      -29.4735889559        2.1479108139  MEMB      41              0.0000000000
      4483        41  OSM       H15T            1.4238949874      -30.4057533701        2.9995521833  MEMB      41              0.0000000000
      4484        41  OSM       C16S            2.0402646423      -28.3821442778        2.3770162489  MEMB      41              0.0000000000
      4485        41  OSM       H16S            3.0279943338      -28.5560138862        2.8561862950  MEMB      41              0.0000000000
      4486        41  OSM       H16T            1.6655519512      -27.3629793665        2.5774657968  MEMB      41              0.0000000000
      4487        41  OSM       C17S            2.2763470712      -28.4123450794        0.8960044861  MEMB      41              0.0000000000
      4488        41  OSM       H17S            2.7716719016      -27.5680994685        0.4263674367  MEMB      41              0.0000000000
      4489        41  OSM       H17T            1.2718017540      -28.4908259490        0.4165855167  MEMB      41              0.0000000000
      4490        41  OSM       C18S            3.2105863727      -29.5108630320        0.5858228739  MEMB      41              0.0000000000
      4491        41  OSM       H18S            2.5623300237      -30.2846327683        1.0344433809  MEMB      41              0.0000000000
      4492        41  OSM       H18T            4.1927421807      -29.7784502616        0.9628068134  MEMB      41              0.0000000000
      4493        41  OSM       H18U            3.3156641490      -29.5293389043       -0.5303972975  MEMB      41              0.0000000000
      4494        41  OSM       C1F             2.4460508622      -27.2979844749       14.3297958380  MEMB      41              0.0000000000
      4495        41  OSM       OF              2.5777216962      -28.4682515389       14.5934795451  MEMB      41              0.0000000000
      4496        41  OSM       C2F             3.5336764026      -26.5386209179       13.6719567401  MEMB      41              0.0000000000
      4497        41  OSM       H2F             4.2880706501      -26.4342544923       14.4841150975  MEMB      41              0.0000000000
      4498        41  OSM       H2G             3.1614839064      -25.5283965093       13.4069790993  MEMB      41              0.0000000000
      4499        41  OSM       C3F             4.1482994832      -27.2214261201       12.4271538330  MEMB      41              0.0000000000
      4500        41  OSM       H3F             3.3837923146      -27.7416366797       11.8044952979  MEMB      41              0.0000000000
      4501        41  OSM       H3G             4.8944210410      -27.9814546482       12.7472084856  MEMB      41              0.0000000000
      4502        41  OSM       C4F             4.8792274964      -26.2237204156       11.5223410362  MEMB      41              0.0000000000
      4503        41  OSM       H4F             5.5757744556      -25.6154777705       12.1403308554  MEMB      41              0.0000000000
      4504        41  OSM       H4G             4.1336786245      -25.5200314589       11.0911885891  MEMB      41              0.0000000000
      4505        41  OSM       C5F             5.6417073541      -26.9340426481       10.3926333836  MEMB      41              0.0000000000
      4506        41  OSM       H5F             6.1628097700      -27.8340140056       10.8049935045  MEMB      41              0.0000000000
      4507        41  OSM       H5G             6.4337270687      -26.2520777390       10.0188474931  MEMB      41              0.0000000000
      4508        41  OSM       C6F             4.7016534985      -27.3719891662        9.2500573136  MEMB      41              0.0000000000
      4509        41  OSM       H6F             3.9437084649      -26.6152957848        8.9565917670  MEMB      41              0.0000000000
      4510        41  OSM       H6G             4.1432393233      -28.2475866215        9.6554485509  MEMB      41              0.0000000000
      4511        41  OSM       C7F             5.4048775302      -27.8094464421        7.9587253706  MEMB      41              0.0000000000
      4512        41  OSM       H7F             4.9819793686      -28.8167028684        7.7291246449  MEMB      41              0.0000000000
      4513        41  OSM       H7G             6.4889968567      -27.9310369148        8.1566745891  MEMB      41              0.0000000000
      4514        41  OSM       C8F             5.1214714733      -26.9640186012        6.6869496602  MEMB      41              0.0000000000
      4515        41  OSM       H8F             4.0446336017      -27.0516662376        6.4493310677  MEMB      41              0.0000000000
      4516        41  OSM       H8G             5.6256627117      -27.4946344904        5.8507081660  MEMB      41              0.0000000000
      4517        41  OSM       C9F             5.4892621804      -25.5085841116        6.6361860160  MEMB      41              0.0000000000
      4518        41  OSM       H9F             6.5227730439      -25.2844653926        6.3583545646  MEMB      41              0.0000000000
      4519        41  OSM       C10F            4.6413174231      -24.4794923832        6.7413307040  MEMB      41              0.0000000000
      4520        41  OSM       H10F            5.0087247176      -23.4594081457        6.5477610685  MEMB      41              0.0000000000
      4521        41  OSM       C11F            3.1588491174      -24.5597726726        6.9340224789  MEMB      41              0.0000000000
      4522        41  OSM       H11F            2.8960107627      -23.8362188887        7.7513071790  MEMB      41              0.0000000000
      4523        41  OSM       H11G            2.7858334461      -25.5546144569        7.1451684845  MEMB      41              0.0000000000
      4524        41  OSM       C12F            2.1724945930      -24.3907577383        5.7679315608  MEMB      41              0.0000000000
      4525        41  OSM       H12F            2.4231362010      -23.4226273516        5.7826932782  MEMB      41              0.0000000000
      4526        41  OSM       H12G            1.1359833951      -24.2777157890        6.0480932947  MEMB      41              0.0000000000
      4527        41  OSM       C13F            2.4221118187      -24.7876728899        4.3113874224  MEMB      41              0.0000000000
      4528        41  OSM       H13F            2.0215765118      -25.7878766212        4.4100623684  MEMB      41              0.0000000000
      4529        41  OSM       H13G            3.5064064717      -24.8893968292        4.2230116321  MEMB      41              0.0000000000
      4530        41  OSM       C14F            1.7351663379      -24.0640654436        3.0799245418  MEMB      41              0.0000000000
      4531        41  OSM       H14F            0.7527599969      -23.6036393881        3.2488984607  MEMB      41              0.0000000000
      4532        41  OSM       H14G            1.6336745099      -24.9027659801        2.3596081837  MEMB      41              0.0000000000
      4533        41  OSM       C15F            2.4993944618      -23.0243998632        2.2631188403  MEMB      41              0.0000000000
      4534        41  OSM       H15F            3.4564009573      -23.3967967313        2.1470099957  MEMB      41              0.0000000000
      4535        41  OSM       H15G            2.4710817216      -21.9489909856        2.5512796022  MEMB      41              0.0000000000
      4536        41  OSM       C16F            2.1549944853      -22.5942721710        0.9278428196  MEMB      41              0.0000000000
      4537        41  OSM       H16F            1.1510012834      -22.2336855798        1.2968668703  MEMB      41              0.0000000000
      4538        41  OSM       H16G            1.6726265234      -23.2927194512        0.2882029883  MEMB      41              0.0000000000
      4539        41  OSM       C17F            3.2972952251      -21.6182689248        0.1728183106  MEMB      41              0.0000000000
      4540        41  OSM       H17F            4.2783892792      -22.0097483804        0.0524122770  MEMB      41              0.0000000000
      4541        41  OSM       H17G            3.4749161473      -20.8143631197        0.9077937685  MEMB      41              0.0000000000
      4542        41  OSM       C18F            3.1876571748      -21.0357713393       -1.3610170664  MEMB      41              0.0000000000
      4543        41  OSM       H18F            3.3644409781      -20.0336382246       -1.7153555666  MEMB      41              0.0000000000
      4544        41  OSM       H18G            2.1715459607      -21.1112919157       -1.5959897308  MEMB      41              0.0000000000
      4545        41  OSM       H18H            2.8189160617      -21.6176072031       -2.1630429265  MEMB      41              0.0000000000
      4546        42  OSM       N               9.1547342479       23.5126901306       20.6785937699  MEMB      42              0.0000000000
      4547        42  OSM       C15             9.2396462425       24.3624581848       19.4777620295  MEMB      42              0.0000000000
      4548        42  OSM       H15A            9.9212631821       23.9521093430       18.7479936246  MEMB      42              0.0000000000
      4549        42  OSM       H15B            9.5122038183       25.3614366920       19.7729303264  MEMB      42              0.0000000000
      4550        42  OSM       H15C            8.2550087132       24.4401604645       19.0201975113  MEMB      42              0.0000000000
      4551        42  OSM       C14             8.2269503319       22.5155029599       20.2789915493  MEMB      42              0.0000000000
      4552        42  OSM       H14A            8.3329588110       21.7125283487       21.0286016006  MEMB      42              0.0000000000
      4553        42  OSM       H14B            8.5576583718       21.9666253718       19.3857221496  MEMB      42              0.0000000000
      4554        42  OSM       H14C            7.1528089665       22.5945566172       20.2591727388  MEMB      42              0.0000000000
      4555        42  OSM       C13            10.5387676210       23.0061352996       21.0660416079  MEMB      42              0.0000000000
      4556        42  OSM       H13A           11.0456392937       22.5128972667       20.2335631515  MEMB      42              0.0000000000
      4557        42  OSM       H13B           10.5245506296       22.2407987685       21.8430963120  MEMB      42              0.0000000000
      4558        42  OSM       H13C           11.1721520192       23.8098234494       21.3945396110  MEMB      42              0.0000000000
      4559        42  OSM       C12             8.4346398714       24.0901141336       21.8262288633  MEMB      42              0.0000000000
      4560        42  OSM       H12A            8.7290522761       23.4945219158       22.6810858935  MEMB      42              0.0000000000
      4561        42  OSM       H12B            7.3727899559       23.9203208029       21.6697873429  MEMB      42              0.0000000000
      4562        42  OSM       C11             8.7100274438       25.5654671131       22.0219648515  MEMB      42              0.0000000000
      4563        42  OSM       H11A            9.8255800369       25.6288057284       21.9647405128  MEMB      42              0.0000000000
      4564        42  OSM       H11B            8.3717501847       25.8505137105       23.0363621113  MEMB      42              0.0000000000
      4565        42  OSM       P               6.7835469967       27.2595021627       21.4413663847  MEMB      42              0.0000000000
      4566        42  OSM       O13             5.7962415559       26.4900611546       22.2227325315  MEMB      42              0.0000000000
      4567        42  OSM       O14             7.3237161248       28.5238687119       21.9956329465  MEMB      42              0.0000000000
      4568        42  OSM       O11             5.9687194440       27.5290441189       20.0911879510  MEMB      42              0.0000000000
      4569        42  OSM       O12             8.0677538859       26.3539352127       21.0210969268  MEMB      42              0.0000000000
      4570        42  OSM       C1S             5.8637419379       26.5574103590       19.0332415954  MEMB      42              0.0000000000
      4571        42  OSM       H1S             4.8592292133       26.2217416054       19.2875806125  MEMB      42              0.0000000000
      4572        42  OSM       H1T             6.5938854485       25.7356405242       19.1318178833  MEMB      42              0.0000000000
      4573        42  OSM       NF              7.1877639055       27.3490961043       16.8342351549  MEMB      42              0.0000000000
      4574        42  OSM       HNF             7.3705265693       28.3280092816       16.7232858771  MEMB      42              0.0000000000
      4575        42  OSM       C2S             5.8783854688       26.9085141778       17.4433606356  MEMB      42              0.0000000000
      4576        42  OSM       H2S             5.5682110910       26.1063682965       16.7777098545  MEMB      42              0.0000000000
      4577        42  OSM       C3S             4.7286126349       27.9251713559       17.2562277863  MEMB      42              0.0000000000
      4578        42  OSM       H3S             4.7126850454       28.8006688822       17.8532124835  MEMB      42              0.0000000000
      4579        42  OSM       O3              3.4592798208       27.5347991280       17.6433485540  MEMB      42              0.0000000000
      4580        42  OSM       HO3             3.7185130407       27.0954776600       18.4530215814  MEMB      42              0.0000000000
      4581        42  OSM       C4S             4.7441065451       28.3256008802       15.8657566557  MEMB      42              0.0000000000
      4582        42  OSM       H4S             5.2546171851       29.2283045856       15.7399383746  MEMB      42              0.0000000000
      4583        42  OSM       C5S             4.2656227203       27.9998053171       14.7233026297  MEMB      42              0.0000000000
      4584        42  OSM       H5S             3.2773577623       27.5395559215       14.8811836357  MEMB      42              0.0000000000
      4585        42  OSM       C6S             4.7250544219       29.0147643362       13.6412538014  MEMB      42              0.0000000000
      4586        42  OSM       H6S             5.4677207309       29.7424534393       13.9283272046  MEMB      42              0.0000000000
      4587        42  OSM       H6T             4.2057154389       29.9885688117       13.5775103897  MEMB      42              0.0000000000
      4588        42  OSM       C7S             4.9602108549       28.5088989324       12.2225264117  MEMB      42              0.0000000000
      4589        42  OSM       H7S             4.2331200248       27.7274310242       11.8910396273  MEMB      42              0.0000000000
      4590        42  OSM       H7T             5.8917584758       28.0625342205       12.5965539311  MEMB      42              0.0000000000
      4591        42  OSM       C8S             5.0233910407       29.6410771770       11.1446473208  MEMB      42              0.0000000000
      4592        42  OSM       H8S             5.8001401661       30.3641901870       11.4004255481  MEMB      42              0.0000000000
      4593        42  OSM       H8T             4.2068662740       30.3144170795       10.9895362643  MEMB      42              0.0000000000
      4594        42  OSM       C9S             5.1863752834       29.3845272888        9.7106757331  MEMB      42              0.0000000000
      4595        42  OSM       H9S             5.1135719282       30.3065475207        9.0707821024  MEMB      42              0.0000000000
      4596        42  OSM       H9T             4.3498258804       28.7300210231        9.4010677388  MEMB      42              0.0000000000
      4597        42  OSM       C10S            6.5864903361       28.9579786693        9.9257802955  MEMB      42              0.0000000000
      4598        42  OSM       H10S            6.5102487181       27.9736131456       10.4327989234  MEMB      42              0.0000000000
      4599        42  OSM       H10T            7.2021946851       29.6460745637       10.5714123567  MEMB      42              0.0000000000
      4600        42  OSM       C11S            7.2626683644       28.9606796729        8.6424733822  MEMB      42              0.0000000000
      4601        42  OSM       H11S            8.3165483930       28.7495734488        8.9152605934  MEMB      42              0.0000000000
      4602        42  OSM       H11T            7.1860545332       29.9706512739        8.1787949720  MEMB      42              0.0000000000
      4603        42  OSM       C12S            6.5917627896       27.8722089976        7.8474297570  MEMB      42              0.0000000000
      4604        42  OSM       H12S            5.5485003648       28.1143428299        7.5409043828  MEMB      42              0.0000000000
      4605        42  OSM       H12T            6.5446135335       26.9791399660        8.5093640464  MEMB      42              0.0000000000
      4606        42  OSM       C13S            7.4448447949       27.5304460277        6.6885993580  MEMB      42              0.0000000000
      4607        42  OSM       H13S            7.1671411940       26.5632092200        6.2194692092  MEMB      42              0.0000000000
      4608        42  OSM       H13T            8.5290846525       27.5298623352        6.9508748995  MEMB      42              0.0000000000
      4609        42  OSM       C14S            7.3472567820       28.4637936316        5.5800062808  MEMB      42              0.0000000000
      4610        42  OSM       H14S            7.8863661006       29.3927007419        5.8749105722  MEMB      42              0.0000000000
      4611        42  OSM       H14T            6.3080211071       28.7848691583        5.2894113446  MEMB      42              0.0000000000
      4612        42  OSM       C15S            8.1042248810       27.5836396769        4.5369663090  MEMB      42              0.0000000000
      4613        42  OSM       H15S            9.1759844821       27.8021574319        4.3890007946  MEMB      42              0.0000000000
      4614        42  OSM       H15T            7.6298386235       28.2607690198        3.9894445150  MEMB      42              0.0000000000
      4615        42  OSM       C16S            7.3676123844       26.7479981469        3.4492109298  MEMB      42              0.0000000000
      4616        42  OSM       H16S            6.2719343922       26.8324308841        3.6404946677  MEMB      42              0.0000000000
      4617        42  OSM       H16T            7.8647755591       25.8153251556        3.7261170477  MEMB      42              0.0000000000
      4618        42  OSM       C17S            7.5530681649       26.8155741842        1.9029422014  MEMB      42              0.0000000000
      4619        42  OSM       H17S            8.6023153321       26.8761896040        1.5953583704  MEMB      42              0.0000000000
      4620        42  OSM       H17T            6.9836436380       27.6296661737        1.3907382428  MEMB      42              0.0000000000
      4621        42  OSM       C18S            7.3181769070       25.4350943498        1.3000365275  MEMB      42              0.0000000000
      4622        42  OSM       H18S            6.3057747012       25.0607837453        1.5356521840  MEMB      42              0.0000000000
      4623        42  OSM       H18T            8.0662236194       24.7637721820        1.7734023584  MEMB      42              0.0000000000
      4624        42  OSM       H18U            7.5482450251       25.3993651701        0.2137818419  MEMB      42              0.0000000000
      4625        42  OSM       C1F             8.2156881851       26.4704177618       16.8850930973  MEMB      42              0.0000000000
      4626        42  OSM       OF              8.0086813434       25.2781452756       16.8867756340  MEMB      42              0.0000000000
      4627        42  OSM       C2F             9.6055921181       26.9588443961       17.0286897931  MEMB      42              0.0000000000
      4628        42  OSM       H2F             9.9625879320       26.7978182111       18.0811354327  MEMB      42              0.0000000000
      4629        42  OSM       H2G             9.4934634173       28.0064951279       16.6770740305  MEMB      42              0.0000000000
      4630        42  OSM       C3F            10.7165318311       26.4515043898       16.1262193999  MEMB      42              0.0000000000
      4631        42  OSM       H3F            10.9440665292       25.3816222719       16.2844428928  MEMB      42              0.0000000000
      4632        42  OSM       H3G            11.6023917919       27.0166066067       16.4921784046  MEMB      42              0.0000000000
      4633        42  OSM       C4F            10.4476223824       26.9166245868       14.6977660274  MEMB      42              0.0000000000
      4634        42  OSM       H4F            11.3322961002       27.2320599904       14.1740513452  MEMB      42              0.0000000000
      4635        42  OSM       H4G             9.9400924998       27.8855248000       14.7493119637  MEMB      42              0.0000000000
      4636        42  OSM       C5F             9.7387699241       25.9082316670       13.8118167965  MEMB      42              0.0000000000
      4637        42  OSM       H5F             8.7748556624       25.7054485155       14.3205284927  MEMB      42              0.0000000000
      4638        42  OSM       H5G            10.3006033007       24.9501124191       13.7759505191  MEMB      42              0.0000000000
      4639        42  OSM       C6F             9.4906084801       26.4223809684       12.3840455873  MEMB      42              0.0000000000
      4640        42  OSM       H6F            10.3391050938       26.2231868623       11.7049257881  MEMB      42              0.0000000000
      4641        42  OSM       H6G             9.3786033419       27.5323312090       12.3864326083  MEMB      42              0.0000000000
      4642        42  OSM       C7F             8.2079016630       25.8405493122       11.7825913195  MEMB      42              0.0000000000
      4643        42  OSM       H7F             7.8325695968       26.6205473627       11.0872751649  MEMB      42              0.0000000000
      4644        42  OSM       H7G             7.4557627036       25.6978235206       12.5914522161  MEMB      42              0.0000000000
      4645        42  OSM       C8F             8.3793287526       24.5065988265       11.0345609122  MEMB      42              0.0000000000
      4646        42  OSM       H8F             8.7634657843       23.7496607515       11.7437399505  MEMB      42              0.0000000000
      4647        42  OSM       H8G             9.1542500688       24.6389286932       10.2447891807  MEMB      42              0.0000000000
      4648        42  OSM       C9F             7.0408073964       24.0667151932       10.4932162467  MEMB      42              0.0000000000
      4649        42  OSM       H9F             6.3560219940       23.5797765492       11.2153517626  MEMB      42              0.0000000000
      4650        42  OSM       C10F            6.7181410399       24.0760032406        9.1927511499  MEMB      42              0.0000000000
      4651        42  OSM       H10F            5.6780763087       23.8913359045        8.8805838751  MEMB      42              0.0000000000
      4652        42  OSM       C11F            7.6006197886       24.5045285266        8.0661494978  MEMB      42              0.0000000000
      4653        42  OSM       H11F            8.2856667064       25.3473043645        8.3333389449  MEMB      42              0.0000000000
      4654        42  OSM       H11G            6.9457348405       24.8637648581        7.2467090458  MEMB      42              0.0000000000
      4655        42  OSM       C12F            8.4147530168       23.3347647798        7.4899783685  MEMB      42              0.0000000000
      4656        42  OSM       H12F            7.8426235527       22.3774107623        7.4750695979  MEMB      42              0.0000000000
      4657        42  OSM       H12G            9.2724099550       23.1521108032        8.1726976254  MEMB      42              0.0000000000
      4658        42  OSM       C13F            8.8191109188       23.7298390750        6.0543870130  MEMB      42              0.0000000000
      4659        42  OSM       H13F            9.3790862858       24.6864604378        6.1130578806  MEMB      42              0.0000000000
      4660        42  OSM       H13G            7.8892651618       23.9122745776        5.4655735364  MEMB      42              0.0000000000
      4661        42  OSM       C14F            9.6081941879       22.6853616594        5.2667715092  MEMB      42              0.0000000000
      4662        42  OSM       H14F            9.0105551941       21.7450967322        5.3261037136  MEMB      42              0.0000000000
      4663        42  OSM       H14G           10.5847573755       22.5082636104        5.7672982946  MEMB      42              0.0000000000
      4664        42  OSM       C15F            9.7522573690       22.9398737116        3.7414052151  MEMB      42              0.0000000000
      4665        42  OSM       H15F            8.7630272718       23.0137528486        3.2410526177  MEMB      42              0.0000000000
      4666        42  OSM       H15G           10.2732251476       22.0381313210        3.3466428077  MEMB      42              0.0000000000
      4667        42  OSM       C16F           10.5014498820       24.1810049684        3.2425050880  MEMB      42              0.0000000000
      4668        42  OSM       H16F           11.4007284883       24.2633155599        3.8863555345  MEMB      42              0.0000000000
      4669        42  OSM       H16G            9.8777091692       25.0865719850        3.3965681316  MEMB      42              0.0000000000
      4670        42  OSM       C17F           10.8269608728       24.0493277848        1.7220240310  MEMB      42              0.0000000000
      4671        42  OSM       H17F            9.9092629458       23.7899648304        1.1729545914  MEMB      42              0.0000000000
      4672        42  OSM       H17G           11.5474067776       23.2047414895        1.6075746776  MEMB      42              0.0000000000
      4673        42  OSM       C18F           11.3261840876       25.2728228028        0.9556354367  MEMB      42              0.0000000000
      4674        42  OSM       H18F           10.6175303020       25.9658459427        0.4939405659  MEMB      42              0.0000000000
      4675        42  OSM       H18G           12.2108678172       25.0449267284        0.3137109849  MEMB      42              0.0000000000
      4676        42  OSM       H18H           11.6140669570       25.9810435295        1.7131351150  MEMB      42              0.0000000000
      4677        43  SAPS      N             -18.1860807666       15.9006910692       20.9850674104  MEMB      43              0.0000000000
      4678        43  SAPS      HN1           -18.3954196541       16.1787536315       21.9637684038  MEMB      43              0.0000000000
      4679        43  SAPS      HN2           -18.3751853280       14.8782425300       20.8798385714  MEMB      43              0.0000000000
      4680        43  SAPS      HN3           -17.2386148739       16.1733264145       20.6737490938  MEMB      43              0.0000000000
      4681        43  SAPS      C12           -19.2073738222       16.6462778538       20.1761202944  MEMB      43              0.0000000000
      4682        43  SAPS      H12A          -19.1353528741       16.3210693833       19.1498562538  MEMB      43              0.0000000000
      4683        43  SAPS      C13           -20.6428309109       16.3284978809       20.6561350567  MEMB      43              0.0000000000
      4684        43  SAPS      O13A          -20.7942074247       15.4040609201       21.5031798832  MEMB      43              0.0000000000
      4685        43  SAPS      O13B          -21.6045840052       16.9070591754       20.0987841194  MEMB      43              0.0000000000
      4686        43  SAPS      C11           -18.9100869861       18.1725131348       20.2387629190  MEMB      43              0.0000000000
      4687        43  SAPS      H11A          -17.8141300116       18.3737480995       20.1905747611  MEMB      43              0.0000000000
      4688        43  SAPS      H11B          -19.2561417061       18.5486873853       21.2313273715  MEMB      43              0.0000000000
      4689        43  SAPS      P             -19.9707838932       20.3636587867       19.3453002630  MEMB      43              0.0000000000
      4690        43  SAPS      O13           -20.8093348978       20.5038350632       20.5561319558  MEMB      43              0.0000000000
      4691        43  SAPS      O14           -18.7515755076       21.1857729724       19.3683310949  MEMB      43              0.0000000000
      4692        43  SAPS      O12           -19.5640687807       18.8342488257       19.1410746162  MEMB      43              0.0000000000
      4693        43  SAPS      O11           -20.8556613566       20.7938992713       18.0970345326  MEMB      43              0.0000000000
      4694        43  SAPS      C1            -22.1338337515       20.2081071832       17.8765808571  MEMB      43              0.0000000000
      4695        43  SAPS      HA            -22.3271782956       19.2969471397       18.4945442015  MEMB      43              0.0000000000
      4696        43  SAPS      HB            -22.9149282283       20.9543688686       18.1427310052  MEMB      43              0.0000000000
      4697        43  SAPS      C2            -22.3400360485       19.8838159808       16.3806296317  MEMB      43              0.0000000000
      4698        43  SAPS      HS            -23.1683056175       19.1516622066       16.2818882644  MEMB      43              0.0000000000
      4699        43  SAPS      O21           -21.1790301345       19.4003211461       15.7097841379  MEMB      43              0.0000000000
      4700        43  SAPS      C21           -20.7836836217       18.1890511130       16.0178957391  MEMB      43              0.0000000000
      4701        43  SAPS      O22           -21.4190749780       17.3377800000       16.6066879757  MEMB      43              0.0000000000
      4702        43  SAPS      C22           -19.4043642544       17.9369836572       15.4617649335  MEMB      43              0.0000000000
      4703        43  SAPS      H2R           -19.1002289878       16.9491095519       15.8439706756  MEMB      43              0.0000000000
      4704        43  SAPS      H2S           -19.4634358698       17.9185549193       14.3491596928  MEMB      43              0.0000000000
      4705        43  SAPS      C3            -22.7233157298       21.2017320108       15.6707069353  MEMB      43              0.0000000000
      4706        43  SAPS      HX            -21.8681187466       21.8936243056       15.8021779533  MEMB      43              0.0000000000
      4707        43  SAPS      HY            -23.6261604970       21.6327298406       16.1547012342  MEMB      43              0.0000000000
      4708        43  SAPS      O31           -22.8822066591       21.0490544701       14.2673161178  MEMB      43              0.0000000000
      4709        43  SAPS      C31           -23.7163610246       20.1340558943       13.9628022934  MEMB      43              0.0000000000
      4710        43  SAPS      O32           -24.5400680117       19.5954279405       14.6806913031  MEMB      43              0.0000000000
      4711        43  SAPS      C32           -23.6769665295       19.9911526774       12.5462054465  MEMB      43              0.0000000000
      4712        43  SAPS      H2X           -23.0515296543       20.5286116418       11.8566038286  MEMB      43              0.0000000000
      4713        43  SAPS      H2Y           -24.5872342134       20.2065536136       12.1093420188  MEMB      43              0.0000000000
      4714        43  SAPS      C23           -18.4457935126       19.0254745018       15.9211386716  MEMB      43              0.0000000000
      4715        43  SAPS      H3R           -17.4617961260       18.5750446302       16.2140349656  MEMB      43              0.0000000000
      4716        43  SAPS      H3S           -18.7850565967       19.5975179615       16.8025171808  MEMB      43              0.0000000000
      4717        43  SAPS      C24           -18.3124579357       19.9288042020       14.7142013567  MEMB      43              0.0000000000
      4718        43  SAPS      H4R           -17.7856947058       19.3129396945       13.9923418503  MEMB      43              0.0000000000
      4719        43  SAPS      H4S           -17.7418560598       20.7695794498       14.8861770878  MEMB      43              0.0000000000
      4720        43  SAPS      C25           -19.2854120540       20.8574112627       14.1400571841  MEMB      43              0.0000000000
      4721        43  SAPS      H5R           -19.6778500929       21.6148410766       14.8364492664  MEMB      43              0.0000000000
      4722        43  SAPS      C26           -19.7448407703       20.6977881868       12.9065805990  MEMB      43              0.0000000000
      4723        43  SAPS      H6R           -20.5384486101       21.3335881731       12.5563928643  MEMB      43              0.0000000000
      4724        43  SAPS      C27           -19.3632333243       19.5857499190       11.9841245250  MEMB      43              0.0000000000
      4725        43  SAPS      H7R           -19.9757037119       19.3541990157       11.1427890099  MEMB      43              0.0000000000
      4726        43  SAPS      H7S           -18.9159129035       18.6969080148       12.5272778394  MEMB      43              0.0000000000
      4727        43  SAPS      C28           -18.4689067414       19.9391345965       10.9608204961  MEMB      43              0.0000000000
      4728        43  SAPS      H8R           -17.6528961422       19.4542538236       11.5701020712  MEMB      43              0.0000000000
      4729        43  SAPS      C29           -18.2536587539       20.7166227437        9.7857077666  MEMB      43              0.0000000000
      4730        43  SAPS      H9R           -17.2408069595       21.1458298215        9.4734473733  MEMB      43              0.0000000000
      4731        43  SAPS      C210          -18.8646625583       21.6382636057        8.9193566199  MEMB      43              0.0000000000
      4732        43  SAPS      H10R          -18.4456710259       22.6404599264        9.1822514354  MEMB      43              0.0000000000
      4733        43  SAPS      H10S          -19.7545789041       21.2464684320        9.3755531817  MEMB      43              0.0000000000
      4734        43  SAPS      C211          -18.4411697671       21.1125293274        7.5835364165  MEMB      43              0.0000000000
      4735        43  SAPS      H11R          -17.3900034078       20.9779418177        7.3508290182  MEMB      43              0.0000000000
      4736        43  SAPS      C212          -19.3042056116       20.7795747353        6.6934954686  MEMB      43              0.0000000000
      4737        43  SAPS      H12R          -18.9210218822       20.2652587195        5.8065141430  MEMB      43              0.0000000000
      4738        43  SAPS      C213          -20.7500642737       20.9577875811        7.0198348279  MEMB      43              0.0000000000
      4739        43  SAPS      H13R          -20.9101563952       22.0175087727        7.3220043287  MEMB      43              0.0000000000
      4740        43  SAPS      H13S          -21.1076551424       20.3435746898        7.8804869465  MEMB      43              0.0000000000
      4741        43  SAPS      C214          -21.4336096432       20.6118564781        5.7436950218  MEMB      43              0.0000000000
      4742        43  SAPS      H14R          -21.4526495677       19.5337572365        5.5484044760  MEMB      43              0.0000000000
      4743        43  SAPS      C215          -22.0351701268       21.4455268193        4.8813764466  MEMB      43              0.0000000000
      4744        43  SAPS      H15R          -22.4617157470       21.0057403081        3.9716940718  MEMB      43              0.0000000000
      4745        43  SAPS      C216          -22.1826450331       22.9441553708        4.9836004718  MEMB      43              0.0000000000
      4746        43  SAPS      H16R          -22.6091667394       23.1974790476        5.9766439038  MEMB      43              0.0000000000
      4747        43  SAPS      H16S          -22.9335284369       23.2880822436        4.2321899125  MEMB      43              0.0000000000
      4748        43  SAPS      C217          -20.9300040375       23.8157971533        4.7617527955  MEMB      43              0.0000000000
      4749        43  SAPS      H17R          -20.1422353865       23.6334606137        5.5240638482  MEMB      43              0.0000000000
      4750        43  SAPS      H17S          -21.2571843112       24.8707751845        4.8952812624  MEMB      43              0.0000000000
      4751        43  SAPS      C218          -20.3366929492       23.6478176584        3.3585169892  MEMB      43              0.0000000000
      4752        43  SAPS      H18R          -20.1507768230       22.5742493932        3.1709286689  MEMB      43              0.0000000000
      4753        43  SAPS      H18S          -19.3368519193       24.1463422133        3.3030680616  MEMB      43              0.0000000000
      4754        43  SAPS      C219          -21.2602364988       24.1752254882        2.2545039111  MEMB      43              0.0000000000
      4755        43  SAPS      H19R          -21.4452034044       25.2454825010        2.5072038722  MEMB      43              0.0000000000
      4756        43  SAPS      H19S          -22.2961633248       23.8189540217        2.2689671657  MEMB      43              0.0000000000
      4757        43  SAPS      C220          -20.6964021912       23.8581919948        0.8446031787  MEMB      43              0.0000000000
      4758        43  SAPS      H20R          -20.7945957691       22.7743159033        0.6644097605  MEMB      43              0.0000000000
      4759        43  SAPS      H20S          -19.6171523850       24.1367577628        0.7538953141  MEMB      43              0.0000000000
      4760        43  SAPS      H20T          -21.2301961830       24.4333293020        0.0545879260  MEMB      43              0.0000000000
      4761        43  SAPS      C33           -24.3208757251       18.8067731660       12.2613952521  MEMB      43              0.0000000000
      4762        43  SAPS      H3X           -25.4301936108       18.8820303775       12.7803291031  MEMB      43              0.0000000000
      4763        43  SAPS      H3Y           -23.6349548067       18.0255384107       12.7271203610  MEMB      43              0.0000000000
      4764        43  SAPS      C34           -24.3906263907       18.9238623033       10.6787661731  MEMB      43              0.0000000000
      4765        43  SAPS      H4X           -25.3789886905       19.0205464158       10.1282426881  MEMB      43              0.0000000000
      4766        43  SAPS      H4Y           -24.7433604597       18.2538167724       11.3359157459  MEMB      43              0.0000000000
      4767        43  SAPS      C35           -23.2034344168       18.4866214834        9.7552568094  MEMB      43              0.0000000000
      4768        43  SAPS      H5X           -22.7145221222       19.4470697293        9.5590841716  MEMB      43              0.0000000000
      4769        43  SAPS      H5Y           -23.6649548040       18.3066011411        8.7399149236  MEMB      43              0.0000000000
      4770        43  SAPS      C36           -22.1938757745       17.3167886585       10.1987792769  MEMB      43              0.0000000000
      4771        43  SAPS      H6X           -22.5480048339       16.4027870332       10.7427122715  MEMB      43              0.0000000000
      4772        43  SAPS      H6Y           -21.5073729965       17.6717970363       10.9763616144  MEMB      43              0.0000000000
      4773        43  SAPS      C37           -21.5552231912       16.5072861751        9.0544334111  MEMB      43              0.0000000000
      4774        43  SAPS      H7X           -22.1901834669       16.1303825408        8.2609505816  MEMB      43              0.0000000000
      4775        43  SAPS      H7Y           -21.1834815758       15.5581664410        9.4298399190  MEMB      43              0.0000000000
      4776        43  SAPS      C38           -20.4264061956       17.2359096565        8.4475554051  MEMB      43              0.0000000000
      4777        43  SAPS      H8X           -19.9110377701       17.6354280799        9.3429327616  MEMB      43              0.0000000000
      4778        43  SAPS      H8Y           -20.8190863383       18.0489081294        7.8061529168  MEMB      43              0.0000000000
      4779        43  SAPS      C39           -19.5408918741       16.2611564318        7.7094792010  MEMB      43              0.0000000000
      4780        43  SAPS      H9X           -19.4672273314       15.3446335352        8.3482508916  MEMB      43              0.0000000000
      4781        43  SAPS      H9Y           -18.5441237231       16.7151130644        7.6518032007  MEMB      43              0.0000000000
      4782        43  SAPS      C310          -20.1396112506       15.8301850654        6.3654719173  MEMB      43              0.0000000000
      4783        43  SAPS      H10X          -21.2322543725       15.7499834238        6.5164179861  MEMB      43              0.0000000000
      4784        43  SAPS      H10Y          -19.7263496512       14.8243432084        6.1386339933  MEMB      43              0.0000000000
      4785        43  SAPS      C311          -20.0406942586       16.7783991022        5.1605709366  MEMB      43              0.0000000000
      4786        43  SAPS      H11X          -20.5184240073       17.7420982457        5.4266021892  MEMB      43              0.0000000000
      4787        43  SAPS      H11Y          -20.6017833487       16.3188695020        4.3106122127  MEMB      43              0.0000000000
      4788        43  SAPS      C312          -18.6106332616       17.0456643572        4.7208186291  MEMB      43              0.0000000000
      4789        43  SAPS      H12X          -18.1510431491       16.0516730835        4.5300013125  MEMB      43              0.0000000000
      4790        43  SAPS      H12Y          -18.1124772927       17.5577660063        5.5700285531  MEMB      43              0.0000000000
      4791        43  SAPS      C313          -18.4632650180       17.9459147084        3.4926188566  MEMB      43              0.0000000000
      4792        43  SAPS      H13X          -17.3873317585       18.0369858518        3.2187895007  MEMB      43              0.0000000000
      4793        43  SAPS      H13Y          -18.8538723895       18.9569709715        3.7468143732  MEMB      43              0.0000000000
      4794        43  SAPS      C314          -19.2287583744       17.4493267379        2.2855904973  MEMB      43              0.0000000000
      4795        43  SAPS      H14X          -20.2587092795       17.8906750072        2.3437342878  MEMB      43              0.0000000000
      4796        43  SAPS      H14Y          -19.3328008076       16.3420591685        2.2940747422  MEMB      43              0.0000000000
      4797        43  SAPS      C315          -18.5709542818       17.8494314843        0.9659369830  MEMB      43              0.0000000000
      4798        43  SAPS      H15X          -17.5744930519       17.4432982761        0.7507279769  MEMB      43              0.0000000000
      4799        43  SAPS      H15Y          -18.5502842743       18.9751015169        0.9068356122  MEMB      43              0.0000000000
      4800        43  SAPS      C316          -19.4617783380       17.3482756027       -0.1300113831  MEMB      43              0.0000000000
      4801        43  SAPS      H16X          -20.3232068692       17.8162707499        0.4021415870  MEMB      43              0.0000000000
      4802        43  SAPS      H16Y          -19.7444064706       16.3346086056       -0.3969039043  MEMB      43              0.0000000000
      4803        43  SAPS      C317          -19.0451485949       17.7850904685       -1.5216336176  MEMB      43              0.0000000000
      4804        43  SAPS      H17X          -18.1304361048       17.3865202948       -1.9040953111  MEMB      43              0.0000000000
      4805        43  SAPS      H17Y          -18.6550709558       18.7994609427       -1.1519814347  MEMB      43              0.0000000000
      4806        43  SAPS      C318          -19.9632981197       17.5874687819       -2.8647831530  MEMB      43              0.0000000000
      4807        43  SAPS      H18X          -20.7586534348       18.3828040341       -2.9999603297  MEMB      43              0.0000000000
      4808        43  SAPS      H18Y          -20.3310262897       16.7185178685       -3.1207845971  MEMB      43              0.0000000000
      4809        43  SAPS      H18Z          -20.7308909745       18.2066402267       -3.4323768969  MEMB      43              0.0000000000
      4810        44  OSM       N              20.9929743677      -17.0253496906       21.0669865643  MEMB      44              0.0000000000
      4811        44  OSM       C15            21.6277380177      -18.3531546993       21.0663625844  MEMB      44              0.0000000000
      4812        44  OSM       H15A           21.5613876455      -18.8815548230       21.9949791058  MEMB      44              0.0000000000
      4813        44  OSM       H15B           22.6764410308      -18.3280509933       20.7594258514  MEMB      44              0.0000000000
      4814        44  OSM       H15C           21.0790492155      -18.9641728967       20.3536333100  MEMB      44              0.0000000000
      4815        44  OSM       C14            20.9298494252      -16.4039265105       19.7073766142  MEMB      44              0.0000000000
      4816        44  OSM       H14A           20.5692296817      -15.3850294868       19.8361245789  MEMB      44              0.0000000000
      4817        44  OSM       H14B           20.2655079972      -16.9410790997       19.0422425548  MEMB      44              0.0000000000
      4818        44  OSM       H14C           21.8914159675      -16.3518618222       19.2039302760  MEMB      44              0.0000000000
      4819        44  OSM       C13            19.5978680787      -17.1593727612       21.4834017613  MEMB      44              0.0000000000
      4820        44  OSM       H13A           19.1425627782      -17.8388014991       20.7500157294  MEMB      44              0.0000000000
      4821        44  OSM       H13B           18.9566224673      -16.2954976558       21.4496904952  MEMB      44              0.0000000000
      4822        44  OSM       H13C           19.4530149015      -17.7296786497       22.3978658435  MEMB      44              0.0000000000
      4823        44  OSM       C12            21.5866687314      -16.1443272597       22.0948715759  MEMB      44              0.0000000000
      4824        44  OSM       H12A           21.3396998581      -16.5701690924       23.0662804575  MEMB      44              0.0000000000
      4825        44  OSM       H12B           21.0450146755      -15.2021522574       22.0314079332  MEMB      44              0.0000000000
      4826        44  OSM       C11            23.0944678827      -15.8846188848       22.0061216780  MEMB      44              0.0000000000
      4827        44  OSM       H11A           23.6425589057      -16.8463734170       22.0689264782  MEMB      44              0.0000000000
      4828        44  OSM       H11B           23.3726559955      -15.3069323064       22.9176655396  MEMB      44              0.0000000000
      4829        44  OSM       P              23.3813268981      -13.6162231538       20.8399767342  MEMB      44              0.0000000000
      4830        44  OSM       O13            22.1026985978      -13.2182385755       21.4819902678  MEMB      44              0.0000000000
      4831        44  OSM       O14            24.5915697041      -13.0783406489       21.4491250820  MEMB      44              0.0000000000
      4832        44  OSM       O11            23.3417415027      -13.1644189864       19.3169825147  MEMB      44              0.0000000000
      4833        44  OSM       O12            23.4653543477      -15.2057621826       20.8035941169  MEMB      44              0.0000000000
      4834        44  OSM       C1S            23.9435668084      -14.0074810584       18.3443835319  MEMB      44              0.0000000000
      4835        44  OSM       H1S            23.6858515478      -15.0675358188       18.5002284933  MEMB      44              0.0000000000
      4836        44  OSM       H1T            25.0575590205      -13.8932827664       18.3828360943  MEMB      44              0.0000000000
      4837        44  OSM       NF             23.5698774993      -14.7368986617       16.0079056962  MEMB      44              0.0000000000
      4838        44  OSM       HNF            24.3223324838      -14.4317510250       15.4292436966  MEMB      44              0.0000000000
      4839        44  OSM       C2S            23.4189827945      -13.6824544490       16.9376530364  MEMB      44              0.0000000000
      4840        44  OSM       H2S            22.3398253938      -13.5076728842       16.8813143324  MEMB      44              0.0000000000
      4841        44  OSM       C3S            24.1542154214      -12.4289905195       16.4759877906  MEMB      44              0.0000000000
      4842        44  OSM       H3S            25.2397679153      -12.4383546374       16.5883107460  MEMB      44              0.0000000000
      4843        44  OSM       O3             23.8551440115      -11.4145256562       17.3266543849  MEMB      44              0.0000000000
      4844        44  OSM       HO3            23.2959057083      -11.7682446831       18.0168644975  MEMB      44              0.0000000000
      4845        44  OSM       C4S            23.7432356593      -12.0958194590       15.1159563082  MEMB      44              0.0000000000
      4846        44  OSM       H4S            22.7820305418      -11.6040048830       14.9686442325  MEMB      44              0.0000000000
      4847        44  OSM       C5S            24.5496269461      -12.1736133831       14.0822128964  MEMB      44              0.0000000000
      4848        44  OSM       H5S            25.6605392671      -12.1189791724       14.2190271669  MEMB      44              0.0000000000
      4849        44  OSM       C6S            24.0912684026      -11.8446492597       12.7189117545  MEMB      44              0.0000000000
      4850        44  OSM       H6S            24.9252573149      -11.4072679555       12.0657153301  MEMB      44              0.0000000000
      4851        44  OSM       H6T            23.1953964273      -11.2437739116       12.8274293820  MEMB      44              0.0000000000
      4852        44  OSM       C7S            23.4573580722      -12.7924464291       11.9100415515  MEMB      44              0.0000000000
      4853        44  OSM       H7S            23.0992932452      -13.6302082664       12.5493162980  MEMB      44              0.0000000000
      4854        44  OSM       H7T            24.4127211223      -12.9108540451       11.3212971292  MEMB      44              0.0000000000
      4855        44  OSM       C8S            22.6154156482      -12.3510161231       10.7627297301  MEMB      44              0.0000000000
      4856        44  OSM       H8S            23.2152030326      -11.7117156141       10.0741994482  MEMB      44              0.0000000000
      4857        44  OSM       H8T            21.8153103459      -11.8220629381       11.2930649789  MEMB      44              0.0000000000
      4858        44  OSM       C9S            22.0402338209      -13.4695524942        9.9030728802  MEMB      44              0.0000000000
      4859        44  OSM       H9S            21.7460106927      -14.3428294144       10.5730163088  MEMB      44              0.0000000000
      4860        44  OSM       H9T            22.7214362315      -13.8922604256        9.1156430216  MEMB      44              0.0000000000
      4861        44  OSM       C10S           21.1186213403      -12.9147302306        8.9857667734  MEMB      44              0.0000000000
      4862        44  OSM       H10S           21.1365973718      -11.9313645286        8.5785433122  MEMB      44              0.0000000000
      4863        44  OSM       H10T           20.5928696946      -12.6691510238        9.9375006116  MEMB      44              0.0000000000
      4864        44  OSM       C11S           20.7068836010      -14.0281734944        8.0134357916  MEMB      44              0.0000000000
      4865        44  OSM       H11S           19.7222022762      -14.4651817022        7.9147267973  MEMB      44              0.0000000000
      4866        44  OSM       H11T           20.9130319218      -14.8996268356        8.6441138677  MEMB      44              0.0000000000
      4867        44  OSM       C12S           20.6421488794      -13.6615666622        6.5447832657  MEMB      44              0.0000000000
      4868        44  OSM       H12S           21.7076261494      -13.6241811248        6.2896237069  MEMB      44              0.0000000000
      4869        44  OSM       H12T           20.2221810391      -12.6261059843        6.6300495237  MEMB      44              0.0000000000
      4870        44  OSM       C13S           19.5731211387      -14.3194366384        5.5767532172  MEMB      44              0.0000000000
      4871        44  OSM       H13S           18.7316010535      -14.8491334428        6.0424178881  MEMB      44              0.0000000000
      4872        44  OSM       H13T           19.7511104781      -15.1066812251        4.8876079772  MEMB      44              0.0000000000
      4873        44  OSM       C14S           19.2110831245      -13.5258632332        4.3684812456  MEMB      44              0.0000000000
      4874        44  OSM       H14S           18.5922028724      -12.7464727576        4.7848937161  MEMB      44              0.0000000000
      4875        44  OSM       H14T           18.6150107420      -14.1689284643        3.6671495737  MEMB      44              0.0000000000
      4876        44  OSM       C15S           20.4061881706      -12.8412142391        3.7385587699  MEMB      44              0.0000000000
      4877        44  OSM       H15S           20.9120592450      -12.2350455501        4.5213974286  MEMB      44              0.0000000000
      4878        44  OSM       H15T           19.9725149449      -12.1484864237        2.9866143578  MEMB      44              0.0000000000
      4879        44  OSM       C16S           21.3900720671      -13.7665288769        3.0241283783  MEMB      44              0.0000000000
      4880        44  OSM       H16S           20.7942886991      -14.3819238203        2.3197499954  MEMB      44              0.0000000000
      4881        44  OSM       H16T           21.9471482036      -14.4400172769        3.7140359849  MEMB      44              0.0000000000
      4882        44  OSM       C17S           22.3724965637      -12.9971495183        2.1617657101  MEMB      44              0.0000000000
      4883        44  OSM       H17S           21.8173242286      -12.4718408895        1.3672398504  MEMB      44              0.0000000000
      4884        44  OSM       H17T           23.1126866312      -13.7132141684        1.7140268364  MEMB      44              0.0000000000
      4885        44  OSM       C18S           23.1560392849      -11.9729126453        2.8962497307  MEMB      44              0.0000000000
      4886        44  OSM       H18S           24.0214243393      -11.7299319416        2.2913375996  MEMB      44              0.0000000000
      4887        44  OSM       H18T           23.6763002499      -12.4932650712        3.6267837375  MEMB      44              0.0000000000
      4888        44  OSM       H18U           22.7161916946      -11.1147290492        3.4289445992  MEMB      44              0.0000000000
      4889        44  OSM       C1F            23.4739841884      -16.0529101066       16.0633817805  MEMB      44              0.0000000000
      4890        44  OSM       OF             23.0383687593      -16.6068828729       17.0195415530  MEMB      44              0.0000000000
      4891        44  OSM       C2F            24.0508298664      -16.8813301641       14.9280841447  MEMB      44              0.0000000000
      4892        44  OSM       H2F            23.9465161360      -16.1400733329       14.1333033874  MEMB      44              0.0000000000
      4893        44  OSM       H2G            23.3637970459      -17.6673835200       14.5852691910  MEMB      44              0.0000000000
      4894        44  OSM       C3F            25.3662173260      -17.7163908794       15.2012905135  MEMB      44              0.0000000000
      4895        44  OSM       H3F            25.2514420638      -18.5537055057       14.4995570119  MEMB      44              0.0000000000
      4896        44  OSM       H3G            25.2926832366      -17.9772602314       16.2856424782  MEMB      44              0.0000000000
      4897        44  OSM       C4F            26.9038335065      -17.4664716060       14.9676251167  MEMB      44              0.0000000000
      4898        44  OSM       H4F            27.5809041577      -18.1636033463       15.3746606314  MEMB      44              0.0000000000
      4899        44  OSM       H4G            27.3219067326      -16.5768933006       15.2917022245  MEMB      44              0.0000000000
      4900        44  OSM       C5F            27.6139410491      -17.0045164944       13.7740774321  MEMB      44              0.0000000000
      4901        44  OSM       H5F            28.4031274854      -16.1457441092       13.9180757926  MEMB      44              0.0000000000
      4902        44  OSM       H5G            26.8744068654      -16.7034521727       13.3210397198  MEMB      44              0.0000000000
      4903        44  OSM       C6F            27.2673536822      -17.6446619589       12.4689294990  MEMB      44              0.0000000000
      4904        44  OSM       H6F            26.2086934597      -18.0004763858       12.4055164787  MEMB      44              0.0000000000
      4905        44  OSM       H6G            27.9156105208      -18.4834708040       12.4671414570  MEMB      44              0.0000000000
      4906        44  OSM       C7F            27.4930732854      -16.8554315828       11.2667418270  MEMB      44              0.0000000000
      4907        44  OSM       H7F            27.2755080693      -17.5070784525       10.4422378537  MEMB      44              0.0000000000
      4908        44  OSM       H7G            28.1951312538      -15.9631227369       11.2108322573  MEMB      44              0.0000000000
      4909        44  OSM       C8F            26.4820047096      -16.4656338903       10.4610369575  MEMB      44              0.0000000000
      4910        44  OSM       H8F            27.0834285366      -15.6462380776        9.9094044562  MEMB      44              0.0000000000
      4911        44  OSM       H8G            26.5743290811      -15.3232092393       10.5795048192  MEMB      44              0.0000000000
      4912        44  OSM       C9F            24.9801684905      -17.2346802693       10.0877681691  MEMB      44              0.0000000000
      4913        44  OSM       H9F            24.2842815053      -17.1037202109       10.8879497272  MEMB      44              0.0000000000
      4914        44  OSM       C10F           24.0158437169      -17.1407247263        9.0020128635  MEMB      44              0.0000000000
      4915        44  OSM       H10F           22.9559967245      -16.9907256332        9.3476648265  MEMB      44              0.0000000000
      4916        44  OSM       C11F           23.6977846325      -16.4844867081        7.6482982362  MEMB      44              0.0000000000
      4917        44  OSM       H11F           24.4178564162      -15.9351596277        7.0209194994  MEMB      44              0.0000000000
      4918        44  OSM       H11G           23.0470923138      -15.5977371364        7.5360643471  MEMB      44              0.0000000000
      4919        44  OSM       C12F           23.8599882918      -17.7232748769        6.8590115986  MEMB      44              0.0000000000
      4920        44  OSM       H12F           23.0314425089      -18.4128323188        7.0419894846  MEMB      44              0.0000000000
      4921        44  OSM       H12G           24.7502753795      -18.3494488272        7.1306705030  MEMB      44              0.0000000000
      4922        44  OSM       C13F           24.0288823212      -17.2440387853        5.4488869985  MEMB      44              0.0000000000
      4923        44  OSM       H13F           24.9338476405      -16.6196272326        5.3593285147  MEMB      44              0.0000000000
      4924        44  OSM       H13G           23.2001452934      -16.5793011216        5.1727637540  MEMB      44              0.0000000000
      4925        44  OSM       C14F           24.1201801226      -18.4423137847        4.6048854121  MEMB      44              0.0000000000
      4926        44  OSM       H14F           23.5386016800      -19.1857401336        5.1130346246  MEMB      44              0.0000000000
      4927        44  OSM       H14G           25.0439754517      -18.9773372604        4.7763625638  MEMB      44              0.0000000000
      4928        44  OSM       C15F           23.8104055174      -18.1731816878        3.1486766507  MEMB      44              0.0000000000
      4929        44  OSM       H15F           23.1128742169      -17.3346095579        2.9438265837  MEMB      44              0.0000000000
      4930        44  OSM       H15G           23.3993575281      -19.1184872173        2.7321870662  MEMB      44              0.0000000000
      4931        44  OSM       C16F           25.1003637563      -17.8198422043        2.4561572447  MEMB      44              0.0000000000
      4932        44  OSM       H16F           25.0471926769      -17.9408584542        1.3676964089  MEMB      44              0.0000000000
      4933        44  OSM       H16G           25.8320836518      -18.4520758810        2.9179766136  MEMB      44              0.0000000000
      4934        44  OSM       C17F           25.6436864876      -16.4518542120        2.7169394425  MEMB      44              0.0000000000
      4935        44  OSM       H17F           25.8904378867      -16.3261957529        3.7839614943  MEMB      44              0.0000000000
      4936        44  OSM       H17G           24.8705029097      -15.7885960726        2.3001366183  MEMB      44              0.0000000000
      4937        44  OSM       C18F           26.9057762790      -16.1737257681        2.0038083412  MEMB      44              0.0000000000
      4938        44  OSM       H18F           27.3515465183      -15.1822064776        2.1412812098  MEMB      44              0.0000000000
      4939        44  OSM       H18G           26.6867384141      -16.2646617764        0.9183375447  MEMB      44              0.0000000000
      4940        44  OSM       H18H           27.6741262127      -16.8772197723        2.3586912168  MEMB      44              0.0000000000
      4941        45  SLPC      N             -19.5941403977      -21.3432242953       17.7061008895  MEMB      45              0.0000000000
      4942        45  SLPC      C13           -18.6221198721      -21.2985376223       18.8529669250  MEMB      45              0.0000000000
      4943        45  SLPC      H13A          -18.9648049491      -20.7104238891       19.6942203289  MEMB      45              0.0000000000
      4944        45  SLPC      H13B          -18.3672674672      -22.2995161959       19.1615478235  MEMB      45              0.0000000000
      4945        45  SLPC      H13C          -17.6651294026      -20.8651456313       18.5272725243  MEMB      45              0.0000000000
      4946        45  SLPC      C14           -19.8092035928      -19.9327015333       17.2790175860  MEMB      45              0.0000000000
      4947        45  SLPC      H14A          -18.8587159722      -19.5380240953       16.8997279773  MEMB      45              0.0000000000
      4948        45  SLPC      H14B          -20.5459011465      -19.8654069547       16.4977429257  MEMB      45              0.0000000000
      4949        45  SLPC      H14C          -20.1024350999      -19.3566369930       18.1457450606  MEMB      45              0.0000000000
      4950        45  SLPC      C15           -20.8662872949      -21.9692767901       18.1396965540  MEMB      45              0.0000000000
      4951        45  SLPC      H15A          -21.5664060692      -21.9907899514       17.3184063589  MEMB      45              0.0000000000
      4952        45  SLPC      H15B          -20.6958362481      -22.9925318360       18.4573815218  MEMB      45              0.0000000000
      4953        45  SLPC      H15C          -21.3304751629      -21.3896129109       18.9183606878  MEMB      45              0.0000000000
      4954        45  SLPC      C12           -18.9857224363      -22.2088312060       16.6121548452  MEMB      45              0.0000000000
      4955        45  SLPC      H12A          -19.7571396890      -22.6209783086       15.9728342204  MEMB      45              0.0000000000
      4956        45  SLPC      H12B          -18.4760411416      -23.0463083006       17.0889239996  MEMB      45              0.0000000000
      4957        45  SLPC      C11           -17.9601577706      -21.5766365717       15.6638567182  MEMB      45              0.0000000000
      4958        45  SLPC      H11A          -18.4719143895      -20.8707738053       14.9805846026  MEMB      45              0.0000000000
      4959        45  SLPC      H11B          -17.5368469242      -22.3944245140       15.0320417784  MEMB      45              0.0000000000
      4960        45  SLPC      P             -15.6037671080      -21.6545583457       16.7352113009  MEMB      45              0.0000000000
      4961        45  SLPC      O13           -14.7757422051      -20.7009494829       17.4882444578  MEMB      45              0.0000000000
      4962        45  SLPC      O14           -15.9062128574      -22.9556406220       17.3441295006  MEMB      45              0.0000000000
      4963        45  SLPC      O12           -16.9591530383      -20.8889245989       16.3802565278  MEMB      45              0.0000000000
      4964        45  SLPC      O11           -14.9245709999      -22.1224210614       15.3976179759  MEMB      45              0.0000000000
      4965        45  SLPC      C1            -13.8362314951      -21.4146699252       14.9490399935  MEMB      45              0.0000000000
      4966        45  SLPC      HA            -13.4131042587      -20.6636123952       15.6707591381  MEMB      45              0.0000000000
      4967        45  SLPC      HB            -12.8111828269      -21.8192868311       14.7292452953  MEMB      45              0.0000000000
      4968        45  SLPC      C2            -14.4605052979      -20.9610721870       13.7186773304  MEMB      45              0.0000000000
      4969        45  SLPC      HS            -14.6403188703      -20.0893468166       13.3490684785  MEMB      45              0.0000000000
      4970        45  SLPC      O21           -15.9573328807      -20.5870636646       13.5631779849  MEMB      45              0.0000000000
      4971        45  SLPC      C21           -16.4776564975      -19.1115869324       13.5353258934  MEMB      45              0.0000000000
      4972        45  SLPC      O22           -16.0176241049      -18.0374144780       13.7119634312  MEMB      45              0.0000000000
      4973        45  SLPC      C22           -17.7514400625      -18.8810007804       13.1128966147  MEMB      45              0.0000000000
      4974        45  SLPC      H2R           -17.9995917808      -19.8668389673       12.7390317987  MEMB      45              0.0000000000
      4975        45  SLPC      H2S           -18.1867509155      -18.6416675862       14.1131851928  MEMB      45              0.0000000000
      4976        45  SLPC      C3            -13.6529765034      -22.0466007806       12.7482324458  MEMB      45              0.0000000000
      4977        45  SLPC      HX            -12.5467780377      -22.2627697252       12.7864340846  MEMB      45              0.0000000000
      4978        45  SLPC      HY            -13.0831677748      -21.6117589803       11.8548848355  MEMB      45              0.0000000000
      4979        45  SLPC      O31           -14.4773678968      -23.1078114454       12.5230071789  MEMB      45              0.0000000000
      4980        45  SLPC      C31           -14.3609901851      -23.5941800223       11.3925585554  MEMB      45              0.0000000000
      4981        45  SLPC      O32           -13.4357430137      -23.4213876233       10.6285144552  MEMB      45              0.0000000000
      4982        45  SLPC      C32           -15.6762323067      -24.2255237664       11.2427468949  MEMB      45              0.0000000000
      4983        45  SLPC      H2X           -16.5230233724      -23.6265967411       10.8904137899  MEMB      45              0.0000000000
      4984        45  SLPC      H2Y           -15.8183538177      -24.8048101803       12.1938827589  MEMB      45              0.0000000000
      4985        45  SLPC      C23           -17.7161976143      -17.6145577729       12.1809658505  MEMB      45              0.0000000000
      4986        45  SLPC      H3R           -17.1155039165      -17.7435231748       11.2509851855  MEMB      45              0.0000000000
      4987        45  SLPC      H3S           -17.2570151804      -16.6615648722       12.5825395193  MEMB      45              0.0000000000
      4988        45  SLPC      C24           -19.1806170075      -17.3114296833       11.9961061574  MEMB      45              0.0000000000
      4989        45  SLPC      H4R           -19.3034715850      -16.2768971343       11.6303280662  MEMB      45              0.0000000000
      4990        45  SLPC      H4S           -19.6362246871      -17.3518297433       13.0132006343  MEMB      45              0.0000000000
      4991        45  SLPC      C25           -19.9019894269      -18.3387090642       11.1224264075  MEMB      45              0.0000000000
      4992        45  SLPC      H5R           -20.9540167603      -18.0072703005       11.0196841902  MEMB      45              0.0000000000
      4993        45  SLPC      H5S           -19.9272360397      -19.3369672392       11.6152324463  MEMB      45              0.0000000000
      4994        45  SLPC      C26           -19.3186234673      -18.4500134500        9.7128684476  MEMB      45              0.0000000000
      4995        45  SLPC      H6R           -18.4516434703      -19.1477455188        9.7293053565  MEMB      45              0.0000000000
      4996        45  SLPC      H6S           -18.9441064447      -17.4440490648        9.4203424767  MEMB      45              0.0000000000
      4997        45  SLPC      C27           -20.3667297954      -18.8749280747        8.6803087478  MEMB      45              0.0000000000
      4998        45  SLPC      H7R           -21.1262701202      -18.0835228537        8.5346989140  MEMB      45              0.0000000000
      4999        45  SLPC      H7S           -20.9204787843      -19.7582934372        9.0256586486  MEMB      45              0.0000000000
      5000        45  SLPC      C28           -19.7865213691      -19.3745580092        7.3683851360  MEMB      45              0.0000000000
      5001        45  SLPC      H8R           -20.5782331508      -19.8714820695        6.8029343393  MEMB      45              0.0000000000
      5002        45  SLPC      H8S           -19.0623009973      -20.1778473832        7.5731993019  MEMB      45              0.0000000000
      5003        45  SLPC      C29           -18.9661547282      -18.5079540716        6.5134923447  MEMB      45              0.0000000000
      5004        45  SLPC      H9R           -18.3966923488      -17.7562498524        7.0880666701  MEMB      45              0.0000000000
      5005        45  SLPC      C210          -19.2364861653      -18.2176617623        5.2454436083  MEMB      45              0.0000000000
      5006        45  SLPC      H10R          -18.4637904739      -17.7334576609        4.6702633263  MEMB      45              0.0000000000
      5007        45  SLPC      C211          -20.3150153071      -18.5496543216        4.3209896576  MEMB      45              0.0000000000
      5008        45  SLPC      H11R          -21.2172984456      -18.3082972721        4.8998170744  MEMB      45              0.0000000000
      5009        45  SLPC      H11S          -20.0806713446      -19.5487817786        4.2090915422  MEMB      45              0.0000000000
      5010        45  SLPC      C212          -20.6269669082      -18.1038685017        2.9335573790  MEMB      45              0.0000000000
      5011        45  SLPC      H12R          -21.5081177420      -17.4470136481        2.9094933095  MEMB      45              0.0000000000
      5012        45  SLPC      C213          -19.8271504286      -18.2533487465        1.8615920877  MEMB      45              0.0000000000
      5013        45  SLPC      H13R          -20.0165070162      -17.6334436247        0.9705504370  MEMB      45              0.0000000000
      5014        45  SLPC      C214          -18.4799062283      -18.9159080028        1.9371257980  MEMB      45              0.0000000000
      5015        45  SLPC      H14R          -18.5548084464      -19.7524809838        1.2099693253  MEMB      45              0.0000000000
      5016        45  SLPC      H14S          -18.2797314849      -19.3594358057        2.9348746894  MEMB      45              0.0000000000
      5017        45  SLPC      C215          -17.2050114841      -18.0819856802        1.6939425802  MEMB      45              0.0000000000
      5018        45  SLPC      H15R          -17.3892237004      -17.3261768878        0.8890483929  MEMB      45              0.0000000000
      5019        45  SLPC      H15S          -16.3944923667      -18.8299237864        1.4613795517  MEMB      45              0.0000000000
      5020        45  SLPC      C216          -16.5471516166      -17.3659514825        2.8248068596  MEMB      45              0.0000000000
      5021        45  SLPC      H16R          -16.1204492621      -18.1524301814        3.4898964158  MEMB      45              0.0000000000
      5022        45  SLPC      H16S          -17.3701611611      -16.7988229655        3.1911782145  MEMB      45              0.0000000000
      5023        45  SLPC      C217          -15.4413384342      -16.4145166484        2.4798128212  MEMB      45              0.0000000000
      5024        45  SLPC      H17R          -15.0475695856      -15.9720555295        3.4333043245  MEMB      45              0.0000000000
      5025        45  SLPC      H17S          -15.7344430250      -15.5605557032        1.8220053943  MEMB      45              0.0000000000
      5026        45  SLPC      C218          -14.4300397508      -17.2997926162        1.8157194944  MEMB      45              0.0000000000
      5027        45  SLPC      H18R          -14.3594701931      -17.2927816475        0.7181218048  MEMB      45              0.0000000000
      5028        45  SLPC      H18S          -13.9189887277      -18.0535671821        2.4469634849  MEMB      45              0.0000000000
      5029        45  SLPC      H18T          -13.6365148382      -16.7087394034        1.7950495517  MEMB      45              0.0000000000
      5030        45  SLPC      C33           -15.5318312149      -25.1271194000       10.1494679322  MEMB      45              0.0000000000
      5031        45  SLPC      H3X           -16.2780130008      -25.8990789354       10.1261485896  MEMB      45              0.0000000000
      5032        45  SLPC      H3Y           -14.7928607884      -25.7529211952       10.5962559791  MEMB      45              0.0000000000
      5033        45  SLPC      C34           -15.2211071427      -24.5910372018        8.7564496503  MEMB      45              0.0000000000
      5034        45  SLPC      H4X           -15.3596060680      -25.5077603553        8.1284714817  MEMB      45              0.0000000000
      5035        45  SLPC      H4Y           -14.2119653442      -24.1676442373        8.5969270580  MEMB      45              0.0000000000
      5036        45  SLPC      C35           -16.2364383259      -24.0040582207        7.9553984726  MEMB      45              0.0000000000
      5037        45  SLPC      H5X           -15.8232726480      -24.0010251034        6.9009941552  MEMB      45              0.0000000000
      5038        45  SLPC      H5Y           -16.3019472786      -23.0176102081        8.4146190057  MEMB      45              0.0000000000
      5039        45  SLPC      C36           -17.4200602220      -24.9045374618        8.1481821289  MEMB      45              0.0000000000
      5040        45  SLPC      H6X           -18.0355343943      -24.6075818824        9.0180098819  MEMB      45              0.0000000000
      5041        45  SLPC      H6Y           -17.2050380610      -26.0011971402        8.1610607819  MEMB      45              0.0000000000
      5042        45  SLPC      C37           -18.1969881784      -24.7328750335        6.9815093825  MEMB      45              0.0000000000
      5043        45  SLPC      H7X           -19.1488434028      -25.2384360905        7.2306647841  MEMB      45              0.0000000000
      5044        45  SLPC      H7Y           -17.6956008297      -25.1847791548        6.0794679868  MEMB      45              0.0000000000
      5045        45  SLPC      C38           -18.5202797545      -23.3101541241        6.7875072555  MEMB      45              0.0000000000
      5046        45  SLPC      H8X           -17.8900530546      -22.4617472758        6.9931547232  MEMB      45              0.0000000000
      5047        45  SLPC      H8Y           -19.5260199448      -23.1867883155        7.2355169162  MEMB      45              0.0000000000
      5048        45  SLPC      C39           -18.6961953160      -23.1326178741        5.3666920813  MEMB      45              0.0000000000
      5049        45  SLPC      H9X           -19.6298634631      -22.6142543189        5.5566631224  MEMB      45              0.0000000000
      5050        45  SLPC      H9Y           -19.1800678237      -24.0636889804        5.1892794738  MEMB      45              0.0000000000
      5051        45  SLPC      C310          -17.5964004214      -22.7885789515        4.2251017465  MEMB      45              0.0000000000
      5052        45  SLPC      H10X          -17.0467948087      -23.7510047842        4.1867693782  MEMB      45              0.0000000000
      5053        45  SLPC      H10Y          -17.0348974715      -21.9238654892        4.6076132554  MEMB      45              0.0000000000
      5054        45  SLPC      C311          -17.7651202318      -22.4400944775        2.6316831371  MEMB      45              0.0000000000
      5055        45  SLPC      H11X          -17.9554826212      -21.4008600404        2.3856087077  MEMB      45              0.0000000000
      5056        45  SLPC      H11Y          -18.7204054939      -22.3642163723        2.1756173216  MEMB      45              0.0000000000
      5057        45  SLPC      C312          -17.5787065971      -23.5067760373        1.5338850751  MEMB      45              0.0000000000
      5058        45  SLPC      H12X          -18.2329252578      -23.3613550641        0.6104817771  MEMB      45              0.0000000000
      5059        45  SLPC      H12Y          -17.7091275830      -24.5673732275        1.8125393287  MEMB      45              0.0000000000
      5060        45  SLPC      C313          -16.2532804754      -23.2606432197        1.0807678061  MEMB      45              0.0000000000
      5061        45  SLPC      H13X          -15.5932005889      -23.5202483902        1.9361006343  MEMB      45              0.0000000000
      5062        45  SLPC      H13Y          -16.2294820145      -22.1572414395        0.8951267788  MEMB      45              0.0000000000
      5063        45  SLPC      C314          -16.0965806159      -24.1432001188       -0.1179780589  MEMB      45              0.0000000000
      5064        45  SLPC      H14X          -16.4336258598      -25.1794625063       -0.0291102580  MEMB      45              0.0000000000
      5065        45  SLPC      H14Y          -15.1161627246      -24.5556181733       -0.1111838227  MEMB      45              0.0000000000
      5066        45  SLPC      C315          -16.4977946911      -23.5104902877       -1.4291792463  MEMB      45              0.0000000000
      5067        45  SLPC      H15X          -17.5756333969      -23.7323318324       -1.5002952665  MEMB      45              0.0000000000
      5068        45  SLPC      H15Y          -16.1016798015      -23.9613143661       -2.3282297923  MEMB      45              0.0000000000
      5069        45  SLPC      C316          -16.0723605771      -22.1190584361       -1.8908838521  MEMB      45              0.0000000000
      5070        45  SLPC      H16X          -16.6244643619      -21.5541610131       -1.1484468091  MEMB      45              0.0000000000
      5071        45  SLPC      H16Y          -16.3833427267      -22.0987863693       -2.9770123310  MEMB      45              0.0000000000
      5072        45  SLPC      C317          -14.8440030277      -21.2351671505       -1.7557713076  MEMB      45              0.0000000000
      5073        45  SLPC      H17X          -14.4369192731      -21.1912816722       -0.7371124283  MEMB      45              0.0000000000
      5074        45  SLPC      H17Y          -14.7056393140      -20.3403431977       -2.4133899744  MEMB      45              0.0000000000
      5075        45  SLPC      C318          -13.8922631313      -21.7353517736       -2.4618543248  MEMB      45              0.0000000000
      5076        45  SLPC      H18X          -13.0915605486      -21.3292705585       -2.9948696140  MEMB      45              0.0000000000
      5077        45  SLPC      H18Y          -14.3154239773      -22.6568286105       -2.9947738503  MEMB      45              0.0000000000
      5078        45  SLPC      H18Z          -13.0280379850      -21.8290075339       -1.7858502412  MEMB      45              0.0000000000
      5079        46  OSM       N              -9.8903352317      -24.0036830185       20.6884242452  MEMB      46              0.0000000000
      5080        46  OSM       C15           -11.3300551638      -23.6087794164       20.7977178335  MEMB      46              0.0000000000
      5081        46  OSM       H15A          -11.9679047098      -24.2735561717       20.1999124440  MEMB      46              0.0000000000
      5082        46  OSM       H15B          -11.5050980434      -22.6020058622       20.4121835304  MEMB      46              0.0000000000
      5083        46  OSM       H15C          -11.6738074694      -23.6636189053       21.8203356723  MEMB      46              0.0000000000
      5084        46  OSM       C14            -9.4404466440      -23.8666200225       19.2724224457  MEMB      46              0.0000000000
      5085        46  OSM       H14A           -9.8802310401      -24.6580840319       18.6669847266  MEMB      46              0.0000000000
      5086        46  OSM       H14B           -8.3720877223      -24.0037475648       19.2195715517  MEMB      46              0.0000000000
      5087        46  OSM       H14C           -9.7519704998      -22.9033356580       18.8594881748  MEMB      46              0.0000000000
      5088        46  OSM       C13            -9.0526457342      -23.0718181600       21.5058877470  MEMB      46              0.0000000000
      5089        46  OSM       H13A           -9.2467543078      -23.1726751109       22.5651356978  MEMB      46              0.0000000000
      5090        46  OSM       H13B           -9.2834236985      -22.0367915503       21.2737354664  MEMB      46              0.0000000000
      5091        46  OSM       H13C           -8.0180615485      -23.2745235990       21.2861369093  MEMB      46              0.0000000000
      5092        46  OSM       C12            -9.6759371232      -25.4656259902       21.1304362359  MEMB      46              0.0000000000
      5093        46  OSM       H12A          -10.0659961074      -25.5848836271       22.1359140427  MEMB      46              0.0000000000
      5094        46  OSM       H12B           -8.6167351657      -25.6553914377       21.1354333588  MEMB      46              0.0000000000
      5095        46  OSM       C11           -10.3119987507      -26.6504319469       20.3514401867  MEMB      46              0.0000000000
      5096        46  OSM       H11A           -9.8615456184      -27.6083589199       20.7215774189  MEMB      46              0.0000000000
      5097        46  OSM       H11B          -10.0786210740      -26.6197160463       19.2629630733  MEMB      46              0.0000000000
      5098        46  OSM       P             -12.5685110013      -27.4139004816       21.5822765908  MEMB      46              0.0000000000
      5099        46  OSM       O13           -11.9177056864      -28.6909807664       21.8861335027  MEMB      46              0.0000000000
      5100        46  OSM       O14           -12.8554077338      -26.5483361606       22.7520549874  MEMB      46              0.0000000000
      5101        46  OSM       O11           -13.8943201900      -27.6820690113       20.7470121377  MEMB      46              0.0000000000
      5102        46  OSM       O12           -11.7122503225      -26.6087337816       20.5383901745  MEMB      46              0.0000000000
      5103        46  OSM       C1S           -14.1719119502      -26.9234596361       19.5571427841  MEMB      46              0.0000000000
      5104        46  OSM       H1S           -14.2295355682      -25.8529105018       19.6867413322  MEMB      46              0.0000000000
      5105        46  OSM       H1T           -15.2162081461      -27.1739459535       19.3638890452  MEMB      46              0.0000000000
      5106        46  OSM       NF            -13.4082203823      -26.4165693712       17.1771182520  MEMB      46              0.0000000000
      5107        46  OSM       HNF           -13.7382471856      -26.9347322930       16.3844152236  MEMB      46              0.0000000000
      5108        46  OSM       C2S           -13.3093394493      -27.2007412026       18.2568983259  MEMB      46              0.0000000000
      5109        46  OSM       H2S           -12.1863264018      -27.2981361442       18.4706979993  MEMB      46              0.0000000000
      5110        46  OSM       C3S           -13.8248625249      -28.3507316877       17.8843732567  MEMB      46              0.0000000000
      5111        46  OSM       H3S           -14.9499728200      -28.3818859237       17.8207572248  MEMB      46              0.0000000000
      5112        46  OSM       O3            -12.9471881655      -29.1636134938       18.7524225603  MEMB      46              0.0000000000
      5113        46  OSM       HO3           -13.4736878201      -29.2945320463       19.5722302426  MEMB      46              0.0000000000
      5114        46  OSM       C4S           -13.7184409229      -28.8116143745       16.5337220820  MEMB      46              0.0000000000
      5115        46  OSM       H4S           -12.6959312478      -28.8458299594       16.7635757678  MEMB      46              0.0000000000
      5116        46  OSM       C5S           -14.2840458472      -29.0373956108       15.3202645901  MEMB      46              0.0000000000
      5117        46  OSM       H5S           -15.3268874786      -28.9258237747       15.2712392936  MEMB      46              0.0000000000
      5118        46  OSM       C6S           -13.7141964417      -29.7047301022       14.0601977458  MEMB      46              0.0000000000
      5119        46  OSM       H6S           -14.0023107207      -30.6964218420       13.7471491967  MEMB      46              0.0000000000
      5120        46  OSM       H6T           -13.0657177583      -30.5332621922       14.2762120758  MEMB      46              0.0000000000
      5121        46  OSM       C7S           -13.1606646580      -28.8893983892       12.9308951875  MEMB      46              0.0000000000
      5122        46  OSM       H7S           -13.9880608023      -28.2258282140       12.8626981814  MEMB      46              0.0000000000
      5123        46  OSM       H7T           -13.1209483414      -29.5244726121       12.0206004377  MEMB      46              0.0000000000
      5124        46  OSM       C8S           -11.9341440458      -28.0025415542       12.9896580365  MEMB      46              0.0000000000
      5125        46  OSM       H8S           -10.9238872501      -28.4144371722       13.1291524657  MEMB      46              0.0000000000
      5126        46  OSM       H8T           -12.1195718084      -27.3014541579       13.8158360020  MEMB      46              0.0000000000
      5127        46  OSM       C9S           -11.7482122097      -27.3628716853       11.6767556402  MEMB      46              0.0000000000
      5128        46  OSM       H9S           -11.7443622015      -28.1103247591       10.8373991279  MEMB      46              0.0000000000
      5129        46  OSM       H9T           -10.8457401314      -26.7307402839       11.6726227457  MEMB      46              0.0000000000
      5130        46  OSM       C10S          -12.8478408437      -26.4534967198       11.4030681069  MEMB      46              0.0000000000
      5131        46  OSM       H10S          -13.0285587453      -25.6751438924       12.1832333568  MEMB      46              0.0000000000
      5132        46  OSM       H10T          -13.7642039119      -27.0300450482       11.4523450277  MEMB      46              0.0000000000
      5133        46  OSM       C11S          -12.5318561652      -26.0034795203        9.9762093463  MEMB      46              0.0000000000
      5134        46  OSM       H11S          -11.5603674394      -26.2123456958        9.6090319883  MEMB      46              0.0000000000
      5135        46  OSM       H11T          -12.5513575383      -24.9913873183        9.9048213761  MEMB      46              0.0000000000
      5136        46  OSM       C12S          -13.2318986572      -26.5570411495        8.7995008840  MEMB      46              0.0000000000
      5137        46  OSM       H12S          -14.2174635466      -26.5085731073        8.9611838928  MEMB      46              0.0000000000
      5138        46  OSM       H12T          -13.2402778747      -27.5832860260        9.0680707970  MEMB      46              0.0000000000
      5139        46  OSM       C13S          -13.0976900494      -25.9774294588        7.3676189791  MEMB      46              0.0000000000
      5140        46  OSM       H13S          -12.1963822254      -26.5020973113        7.0472877556  MEMB      46              0.0000000000
      5141        46  OSM       H13T          -13.0619315016      -24.8846747468        7.2394556091  MEMB      46              0.0000000000
      5142        46  OSM       C14S          -14.1445786433      -26.2459847038        6.2915966661  MEMB      46              0.0000000000
      5143        46  OSM       H14S          -15.1431560018      -25.7543510455        6.1954950684  MEMB      46              0.0000000000
      5144        46  OSM       H14T          -14.2630062946      -27.2658141892        6.5220991786  MEMB      46              0.0000000000
      5145        46  OSM       C15S          -13.5122498812      -26.4435607440        4.9831619504  MEMB      46              0.0000000000
      5146        46  OSM       H15S          -12.9372168552      -27.3833981191        5.1631911102  MEMB      46              0.0000000000
      5147        46  OSM       H15T          -12.8344232824      -25.6440640481        4.8358818517  MEMB      46              0.0000000000
      5148        46  OSM       C16S          -14.5234940470      -26.3721148949        3.8749625016  MEMB      46              0.0000000000
      5149        46  OSM       H16S          -15.1248746317      -25.4541748590        3.8483469447  MEMB      46              0.0000000000
      5150        46  OSM       H16T          -15.2319972664      -27.0359512475        4.2728158043  MEMB      46              0.0000000000
      5151        46  OSM       C17S          -13.9639678203      -26.7416490796        2.5211407579  MEMB      46              0.0000000000
      5152        46  OSM       H17S          -13.3982667090      -27.6420308949        2.4478179480  MEMB      46              0.0000000000
      5153        46  OSM       H17T          -13.0900259472      -26.1258626430        2.3255045987  MEMB      46              0.0000000000
      5154        46  OSM       C18S          -14.9814716361      -26.7763656137        1.4129765192  MEMB      46              0.0000000000
      5155        46  OSM       H18S          -14.5901972039      -27.1961845660        0.4639711373  MEMB      46              0.0000000000
      5156        46  OSM       H18T          -15.0774074118      -25.7896981272        1.1413000994  MEMB      46              0.0000000000
      5157        46  OSM       H18U          -15.9484218510      -27.2677376410        1.6928933269  MEMB      46              0.0000000000
      5158        46  OSM       C1F           -12.7748805646      -25.3683036851       17.1947525664  MEMB      46              0.0000000000
      5159        46  OSM       OF            -12.3119081499      -24.9239210894       18.2259978854  MEMB      46              0.0000000000
      5160        46  OSM       C2F           -12.7031652086      -24.8591206449       15.8843631349  MEMB      46              0.0000000000
      5161        46  OSM       H2F           -13.4455498462      -24.0359832433       15.8874117740  MEMB      46              0.0000000000
      5162        46  OSM       H2G           -12.9104292061      -25.5779910005       15.0459200923  MEMB      46              0.0000000000
      5163        46  OSM       C3F           -11.3107875815      -24.4131804393       15.6959760412  MEMB      46              0.0000000000
      5164        46  OSM       H3F           -11.0634797219      -23.5660034421       16.3868840364  MEMB      46              0.0000000000
      5165        46  OSM       H3G           -11.6410710162      -23.9689707597       14.7147549560  MEMB      46              0.0000000000
      5166        46  OSM       C4F           -10.1501550060      -25.5059481277       15.6531079172  MEMB      46              0.0000000000
      5167        46  OSM       H4F           -10.4523231857      -26.3404799528       15.0086561303  MEMB      46              0.0000000000
      5168        46  OSM       H4G           -10.0195014579      -25.7602994155       16.7223990443  MEMB      46              0.0000000000
      5169        46  OSM       C5F            -8.6467525892      -25.3079010440       15.2392255551  MEMB      46              0.0000000000
      5170        46  OSM       H5F            -7.8230123344      -25.9200202538       15.6102410015  MEMB      46              0.0000000000
      5171        46  OSM       H5G            -8.4221775784      -24.4114848851       15.7220718551  MEMB      46              0.0000000000
      5172        46  OSM       C6F            -8.3444343246      -25.1723903135       13.7919730518  MEMB      46              0.0000000000
      5173        46  OSM       H6F            -7.5852722034      -24.3613422033       13.5825409667  MEMB      46              0.0000000000
      5174        46  OSM       H6G            -9.4125772203      -25.0265752533       13.4830397275  MEMB      46              0.0000000000
      5175        46  OSM       C7F            -7.8078168076      -26.3358132223       13.0059977262  MEMB      46              0.0000000000
      5176        46  OSM       H7F            -8.7298516084      -26.9455446984       13.1750801614  MEMB      46              0.0000000000
      5177        46  OSM       H7G            -6.9207330366      -26.4594325203       13.6380179027  MEMB      46              0.0000000000
      5178        46  OSM       C8F            -7.3692493502      -26.2594081587       11.4740551990  MEMB      46              0.0000000000
      5179        46  OSM       H8F            -8.3681557980      -26.4085623867       10.9918847402  MEMB      46              0.0000000000
      5180        46  OSM       H8G            -7.1466042180      -27.3247776213       11.2336774623  MEMB      46              0.0000000000
      5181        46  OSM       C9F            -6.3937467720      -25.0382680413       10.9784397353  MEMB      46              0.0000000000
      5182        46  OSM       H9F            -5.4283193050      -25.2009348988       11.4823356293  MEMB      46              0.0000000000
      5183        46  OSM       C10F           -6.5971554598      -23.6821302256       10.4039358097  MEMB      46              0.0000000000
      5184        46  OSM       H10F           -5.7073003994      -23.0508352681       10.3651886480  MEMB      46              0.0000000000
      5185        46  OSM       C11F           -7.8373342996      -22.6198737086        9.9160149929  MEMB      46              0.0000000000
      5186        46  OSM       H11F           -7.6960047690      -21.6070390699       10.2489669585  MEMB      46              0.0000000000
      5187        46  OSM       H11G           -9.0092199411      -22.4911300872       10.1409914703  MEMB      46              0.0000000000
      5188        46  OSM       C12F           -8.0624329180      -22.7615013092        8.4729787003  MEMB      46              0.0000000000
      5189        46  OSM       H12F           -7.3083170455      -23.5239703112        8.3058189568  MEMB      46              0.0000000000
      5190        46  OSM       H12G           -7.0772171427      -22.4444664969        8.3164189265  MEMB      46              0.0000000000
      5191        46  OSM       C13F           -9.5510512079      -22.8918837937        7.4524346030  MEMB      46              0.0000000000
      5192        46  OSM       H13F           -9.0341884896      -21.9245020999        7.4156445234  MEMB      46              0.0000000000
      5193        46  OSM       H13G          -10.5137335823      -23.0612587941        7.9571229205  MEMB      46              0.0000000000
      5194        46  OSM       C14F          -10.0061462348      -23.4442038608        5.8720732336  MEMB      46              0.0000000000
      5195        46  OSM       H14F           -9.3036079830      -23.2289592536        4.9970885060  MEMB      46              0.0000000000
      5196        46  OSM       H14G          -10.9807005776      -23.1371596514        5.5104698793  MEMB      46              0.0000000000
      5197        46  OSM       C15F          -10.3304057708      -24.7709295136        5.3890624495  MEMB      46              0.0000000000
      5198        46  OSM       H15F          -11.0457911231      -24.9899052834        6.1961789232  MEMB      46              0.0000000000
      5199        46  OSM       H15G           -9.4089978598      -25.3694855620        5.2526808945  MEMB      46              0.0000000000
      5200        46  OSM       C16F          -10.9009757847      -24.6689503273        4.0453185527  MEMB      46              0.0000000000
      5201        46  OSM       H16F          -11.8444348749      -24.0783573957        4.1005706242  MEMB      46              0.0000000000
      5202        46  OSM       H16G          -11.0319865865      -25.7570904595        3.9148675886  MEMB      46              0.0000000000
      5203        46  OSM       C17F          -10.0382529718      -24.0843482692        3.0102717743  MEMB      46              0.0000000000
      5204        46  OSM       H17F           -8.9497680948      -24.3132175476        3.0640429700  MEMB      46              0.0000000000
      5205        46  OSM       H17G          -10.2052225053      -23.0030668495        2.8029944147  MEMB      46              0.0000000000
      5206        46  OSM       C18F          -10.6040238763      -24.5831277188        1.8311882363  MEMB      46              0.0000000000
      5207        46  OSM       H18F          -10.3883391701      -25.6357605638        1.6498986886  MEMB      46              0.0000000000
      5208        46  OSM       H18G          -10.1796250269      -24.1560972889        0.9880906792  MEMB      46              0.0000000000
      5209        46  OSM       H18H          -11.6443727268      -24.2631502789        1.7408491888  MEMB      46              0.0000000000
      5210        47  OSM       N              23.8723753930       17.7399725230       22.1641193021  MEMB      47              0.0000000000
      5211        47  OSM       C15            24.7156845937       17.0639220126       23.1795367922  MEMB      47              0.0000000000
      5212        47  OSM       H15A           24.4696596441       17.4431799638       24.1630233658  MEMB      47              0.0000000000
      5213        47  OSM       H15B           25.7685451148       17.2459222662       23.0013189115  MEMB      47              0.0000000000
      5214        47  OSM       H15C           24.6062539323       15.9853941899       23.1445389174  MEMB      47              0.0000000000
      5215        47  OSM       C14            24.1282999511       19.2130780117       22.2179143140  MEMB      47              0.0000000000
      5216        47  OSM       H14A           23.3066286560       19.7177643967       21.7005099586  MEMB      47              0.0000000000
      5217        47  OSM       H14B           25.0640808458       19.5375510937       21.7896001671  MEMB      47              0.0000000000
      5218        47  OSM       H14C           24.0876242340       19.5623365559       23.2419943692  MEMB      47              0.0000000000
      5219        47  OSM       C13            24.1560019646       17.1699406677       20.7951727280  MEMB      47              0.0000000000
      5220        47  OSM       H13A           23.6782579830       16.1907806010       20.6805677625  MEMB      47              0.0000000000
      5221        47  OSM       H13B           25.2112041337       17.0940205514       20.5450511424  MEMB      47              0.0000000000
      5222        47  OSM       H13C           23.6466813552       17.7630085001       20.0343732207  MEMB      47              0.0000000000
      5223        47  OSM       C12            22.3934929297       17.5516001401       22.5128153367  MEMB      47              0.0000000000
      5224        47  OSM       H12A           22.2171231006       17.9919260879       23.4813805031  MEMB      47              0.0000000000
      5225        47  OSM       H12B           22.1601940848       16.4943617280       22.5449881054  MEMB      47              0.0000000000
      5226        47  OSM       C11            21.2975316663       18.1592011381       21.6038867818  MEMB      47              0.0000000000
      5227        47  OSM       H11A           21.2027828518       19.2333247639       21.6266766254  MEMB      47              0.0000000000
      5228        47  OSM       H11B           20.3166684455       17.8383821695       22.0528516709  MEMB      47              0.0000000000
      5229        47  OSM       P              20.6617623278       16.6577931207       19.6999087352  MEMB      47              0.0000000000
      5230        47  OSM       O13            21.4675793215       15.4855422447       20.1499895031  MEMB      47              0.0000000000
      5231        47  OSM       O14            19.3168810788       17.0101426919       20.2122030409  MEMB      47              0.0000000000
      5232        47  OSM       O11            20.7245699710       16.8229202698       18.1532559530  MEMB      47              0.0000000000
      5233        47  OSM       O12            21.5053608020       17.8686593487       20.2199190041  MEMB      47              0.0000000000
      5234        47  OSM       C1S            21.8351383812       17.4426555617       17.5441310322  MEMB      47              0.0000000000
      5235        47  OSM       H1S            22.7826115877       16.9160766814       17.8109218737  MEMB      47              0.0000000000
      5236        47  OSM       H1T            21.8615191801       18.5009181992       17.8690603929  MEMB      47              0.0000000000
      5237        47  OSM       NF             21.9967317055       16.2468705307       15.4769835161  MEMB      47              0.0000000000
      5238        47  OSM       HNF            22.8405735361       16.0549128955       14.9734017563  MEMB      47              0.0000000000
      5239        47  OSM       C2S            21.7138555350       17.4651873977       16.0092734388  MEMB      47              0.0000000000
      5240        47  OSM       H2S            20.6913481285       17.6810771905       15.6378984210  MEMB      47              0.0000000000
      5241        47  OSM       C3S            22.6902270169       18.4282892157       15.4201761195  MEMB      47              0.0000000000
      5242        47  OSM       H3S            23.6601863385       18.2890522361       15.9331194856  MEMB      47              0.0000000000
      5243        47  OSM       O3             22.2224833187       19.7400613888       15.6699332192  MEMB      47              0.0000000000
      5244        47  OSM       HO3            21.4321250825       19.5884424771       16.1952662173  MEMB      47              0.0000000000
      5245        47  OSM       C4S            22.7596206039       18.1168387355       13.9232377082  MEMB      47              0.0000000000
      5246        47  OSM       H4S            21.8665518953       18.4457764565       13.3898699621  MEMB      47              0.0000000000
      5247        47  OSM       C5S            23.7101862355       17.4051233088       13.2447869026  MEMB      47              0.0000000000
      5248        47  OSM       H5S            24.6858565986       17.2324487915       13.7199611516  MEMB      47              0.0000000000
      5249        47  OSM       C6S            23.7404615155       17.1306226776       11.7456237103  MEMB      47              0.0000000000
      5250        47  OSM       H6S            22.8392457867       17.5087026783       11.1900293272  MEMB      47              0.0000000000
      5251        47  OSM       H6T            24.1475061981       16.1356473737       11.5310803317  MEMB      47              0.0000000000
      5252        47  OSM       C7S            24.8272686769       17.8410242442       10.9679204566  MEMB      47              0.0000000000
      5253        47  OSM       H7S            25.7106520601       17.9035729423       11.6502887609  MEMB      47              0.0000000000
      5254        47  OSM       H7T            24.2045320224       18.7615719877       10.7509787312  MEMB      47              0.0000000000
      5255        47  OSM       C8S            25.2672580621       17.6882444916        9.5305149899  MEMB      47              0.0000000000
      5256        47  OSM       H8S            26.0415852748       16.9103153658        9.5449565125  MEMB      47              0.0000000000
      5257        47  OSM       H8T            25.7913659245       18.5807558458        9.0868198940  MEMB      47              0.0000000000
      5258        47  OSM       C9S            24.0358108064       17.4080225109        8.7124215002  MEMB      47              0.0000000000
      5259        47  OSM       H9S            23.2419915341       18.1819086437        8.7979425141  MEMB      47              0.0000000000
      5260        47  OSM       H9T            23.6188046512       16.4782666302        9.1577956668  MEMB      47              0.0000000000
      5261        47  OSM       C10S           24.4425145813       17.1471100994        7.2805824164  MEMB      47              0.0000000000
      5262        47  OSM       H10S           23.6463929657       16.5315025297        6.8188278399  MEMB      47              0.0000000000
      5263        47  OSM       H10T           25.3542784076       16.5447679206        7.3863524945  MEMB      47              0.0000000000
      5264        47  OSM       C11S           24.7575477262       18.3504154214        6.3840816863  MEMB      47              0.0000000000
      5265        47  OSM       H11S           25.0137570422       17.9871004970        5.3668508986  MEMB      47              0.0000000000
      5266        47  OSM       H11T           25.6578552489       18.9072975261        6.7293312121  MEMB      47              0.0000000000
      5267        47  OSM       C12S           23.5158441072       19.1970063987        6.1333660634  MEMB      47              0.0000000000
      5268        47  OSM       H12S           23.7120199851       19.8644314915        5.2628849408  MEMB      47              0.0000000000
      5269        47  OSM       H12T           23.3296684047       19.8041112218        7.0339779172  MEMB      47              0.0000000000
      5270        47  OSM       C13S           22.2424595859       18.3384332624        5.9249912444  MEMB      47              0.0000000000
      5271        47  OSM       H13S           21.8765924326       17.9651141762        6.8922722469  MEMB      47              0.0000000000
      5272        47  OSM       H13T           22.4654840471       17.5482459672        5.1691920391  MEMB      47              0.0000000000
      5273        47  OSM       C14S           21.0578639099       19.0178282865        5.3038215913  MEMB      47              0.0000000000
      5274        47  OSM       H14S           21.3958843825       18.9837957041        4.3131843764  MEMB      47              0.0000000000
      5275        47  OSM       H14T           20.7972874547       19.9400955360        5.6663054927  MEMB      47              0.0000000000
      5276        47  OSM       C15S           19.6610969962       18.4905150974        5.0898249171  MEMB      47              0.0000000000
      5277        47  OSM       H15S           19.2572963244       18.4681284937        6.1156776418  MEMB      47              0.0000000000
      5278        47  OSM       H15T           20.0020813923       17.6091017072        4.5729135118  MEMB      47              0.0000000000
      5279        47  OSM       C16S           18.5498813338       19.1146299083        4.1865102947  MEMB      47              0.0000000000
      5280        47  OSM       H16S           18.4492327875       20.1339736706        4.4192028161  MEMB      47              0.0000000000
      5281        47  OSM       H16T           17.5594483855       18.8265281694        4.4468829892  MEMB      47              0.0000000000
      5282        47  OSM       C17S           18.6454115186       19.1894063304        2.6733957675  MEMB      47              0.0000000000
      5283        47  OSM       H17S           19.5329751194       19.6811772666        2.9104766912  MEMB      47              0.0000000000
      5284        47  OSM       H17T           18.2640771137       19.9765123823        2.0215467348  MEMB      47              0.0000000000
      5285        47  OSM       C18S           18.7740407162       17.9773935843        1.8344918227  MEMB      47              0.0000000000
      5286        47  OSM       H18S           18.5360449999       18.0867310222        0.7861207423  MEMB      47              0.0000000000
      5287        47  OSM       H18T           18.0228989185       17.4090964282        2.3734861073  MEMB      47              0.0000000000
      5288        47  OSM       H18U           19.7710859605       17.4949690689        1.7663204091  MEMB      47              0.0000000000
      5289        47  OSM       C1F            21.1269567762       15.3455378845       15.5941816381  MEMB      47              0.0000000000
      5290        47  OSM       OF             20.0886756764       15.2337179274       16.1929249764  MEMB      47              0.0000000000
      5291        47  OSM       C2F            21.8656900594       14.3532780083       15.2663335225  MEMB      47              0.0000000000
      5292        47  OSM       H2F            22.1253326049       14.3537420796       16.3824597519  MEMB      47              0.0000000000
      5293        47  OSM       H2G            22.7503035941       14.3217231090       14.5695875298  MEMB      47              0.0000000000
      5294        47  OSM       C3F            21.2030582408       13.3002953475       14.6922766174  MEMB      47              0.0000000000
      5295        47  OSM       H3F            20.4168426694       12.7706369125       15.3353723262  MEMB      47              0.0000000000
      5296        47  OSM       H3G            21.9632132463       12.7548890474       14.0980671782  MEMB      47              0.0000000000
      5297        47  OSM       C4F            21.0388600395       13.3778696940       13.2953087830  MEMB      47              0.0000000000
      5298        47  OSM       H4F            20.7099873408       14.4296656777       13.3200328247  MEMB      47              0.0000000000
      5299        47  OSM       H4G            20.3661243360       12.4870600882       13.5413754772  MEMB      47              0.0000000000
      5300        47  OSM       C5F            21.8400095953       13.6398889068       12.0484714761  MEMB      47              0.0000000000
      5301        47  OSM       H5F            22.6036851213       12.8645936351       12.0165467980  MEMB      47              0.0000000000
      5302        47  OSM       H5G            22.1885240082       14.6808784040       12.1972706761  MEMB      47              0.0000000000
      5303        47  OSM       C6F            21.1314757724       13.7491616996       10.6609331917  MEMB      47              0.0000000000
      5304        47  OSM       H6F            20.1961559134       14.3505468429       10.5857860541  MEMB      47              0.0000000000
      5305        47  OSM       H6G            20.6920277903       12.7509198615       10.5616066791  MEMB      47              0.0000000000
      5306        47  OSM       C7F            22.0316343738       14.4166823335        9.6501084360  MEMB      47              0.0000000000
      5307        47  OSM       H7F            22.9954834038       14.3828070356       10.1857678103  MEMB      47              0.0000000000
      5308        47  OSM       H7G            21.6066664756       15.4080148133        9.4150982069  MEMB      47              0.0000000000
      5309        47  OSM       C8F            22.3315751403       13.8394798276        8.3273770048  MEMB      47              0.0000000000
      5310        47  OSM       H8F            22.8903732630       12.9513192475        8.6887747441  MEMB      47              0.0000000000
      5311        47  OSM       H8G            23.1560408816       13.9860575964        7.6440396580  MEMB      47              0.0000000000
      5312        47  OSM       C9F            21.0489970572       13.6432214221        7.6103343377  MEMB      47              0.0000000000
      5313        47  OSM       H9F            20.2334173029       13.0572567621        8.1030956280  MEMB      47              0.0000000000
      5314        47  OSM       C10F           20.8624407650       13.8175024479        6.3358103950  MEMB      47              0.0000000000
      5315        47  OSM       H10F           20.1815966920       13.1253963688        5.7740286763  MEMB      47              0.0000000000
      5316        47  OSM       C11F           21.7561721579       14.2650120454        5.4233555062  MEMB      47              0.0000000000
      5317        47  OSM       H11F           22.7583258787       14.2884138239        5.7508500361  MEMB      47              0.0000000000
      5318        47  OSM       H11G           21.3989009123       15.2598660584        5.8017532576  MEMB      47              0.0000000000
      5319        47  OSM       C12F           21.3815369719       13.8848781337        3.9853354568  MEMB      47              0.0000000000
      5320        47  OSM       H12F           20.3070587968       13.7154214775        3.8706208924  MEMB      47              0.0000000000
      5321        47  OSM       H12G           21.3286258329       12.8716145077        3.6005573744  MEMB      47              0.0000000000
      5322        47  OSM       C13F           21.9915545533       15.0547677348        3.1661847520  MEMB      47              0.0000000000
      5323        47  OSM       H13F           21.8478234385       16.0621763565        3.6181693264  MEMB      47              0.0000000000
      5324        47  OSM       H13G           21.7186104554       15.2807259294        2.1212768103  MEMB      47              0.0000000000
      5325        47  OSM       C14F           23.3381217627       14.5094105419        3.0518930668  MEMB      47              0.0000000000
      5326        47  OSM       H14F           23.0994623521       13.4975590466        2.6334516678  MEMB      47              0.0000000000
      5327        47  OSM       H14G           23.7070693150       14.4601569020        4.0912476970  MEMB      47              0.0000000000
      5328        47  OSM       C15F           24.2871172893       15.2703327363        2.1789800921  MEMB      47              0.0000000000
      5329        47  OSM       H15F           24.6417059496       16.1292590250        2.8013705903  MEMB      47              0.0000000000
      5330        47  OSM       H15G           23.7892746144       15.6292046801        1.2630899656  MEMB      47              0.0000000000
      5331        47  OSM       C16F           25.4553516314       14.3597984048        1.8525171777  MEMB      47              0.0000000000
      5332        47  OSM       H16F           25.2149618725       13.3113316075        1.6573045885  MEMB      47              0.0000000000
      5333        47  OSM       H16G           25.9919357901       14.4905131963        2.7803546306  MEMB      47              0.0000000000
      5334        47  OSM       C17F           26.4930846647       14.7720855847        0.8722934251  MEMB      47              0.0000000000
      5335        47  OSM       H17F           27.4077698763       14.1551646868        0.8863376935  MEMB      47              0.0000000000
      5336        47  OSM       H17G           26.8852037614       15.6865286709        1.3767363628  MEMB      47              0.0000000000
      5337        47  OSM       C18F           26.0335097012       14.9172107850       -0.6025008672  MEMB      47              0.0000000000
      5338        47  OSM       H18F           26.6445982337       15.6306881404       -1.1954619419  MEMB      47              0.0000000000
      5339        47  OSM       H18G           25.0195525684       15.3572424963       -0.6809681088  MEMB      47              0.0000000000
      5340        47  OSM       H18H           26.1828550684       13.9931636010       -1.1485934881  MEMB      47              0.0000000000
      5341        48  CHL1      C3            -27.5281190666        5.8993002389       17.3473864511  MEMB      48              0.0000000000
      5342        48  CHL1      H3            -26.8110101469        6.5642775743       16.8110014181  MEMB      48              0.0000000000
      5343        48  CHL1      O3            -27.6424641388        6.3576731921       18.6922795496  MEMB      48              0.0000000000
      5344        48  CHL1      H3'           -28.0622892622        5.6384802258       19.2028276981  MEMB      48              0.0000000000
      5345        48  CHL1      C4            -28.9010431270        6.0088103604       16.6835965315  MEMB      48              0.0000000000
      5346        48  CHL1      H4A           -29.5942952958        5.3538035982       17.2495525541  MEMB      48              0.0000000000
      5347        48  CHL1      H4B           -29.3112781155        7.0355099992       16.7846585706  MEMB      48              0.0000000000
      5348        48  CHL1      C5            -28.7707977467        5.6052868730       15.2324613884  MEMB      48              0.0000000000
      5349        48  CHL1      C6            -29.0038834897        6.4743592592       14.2445936962  MEMB      48              0.0000000000
      5350        48  CHL1      H6            -29.3327837908        7.4942409315       14.4855625308  MEMB      48              0.0000000000
      5351        48  CHL1      C7            -28.9587423932        6.0993119384       12.7971612183  MEMB      48              0.0000000000
      5352        48  CHL1      H7A           -29.8073717125        6.5674708486       12.2633014604  MEMB      48              0.0000000000
      5353        48  CHL1      H7B           -28.0235655850        6.4908998911       12.3422745236  MEMB      48              0.0000000000
      5354        48  CHL1      C8            -28.9894874121        4.5711881102       12.5434295301  MEMB      48              0.0000000000
      5355        48  CHL1      H8            -30.0205109106        4.1969019640       12.7299155358  MEMB      48              0.0000000000
      5356        48  CHL1      C14           -28.5769842099        4.3127559236       11.1016703370  MEMB      48              0.0000000000
      5357        48  CHL1      H14           -27.5385676985        4.7228013988       10.9904113138  MEMB      48              0.0000000000
      5358        48  CHL1      C15           -29.3410162562        5.0300086200        9.9648999367  MEMB      48              0.0000000000
      5359        48  CHL1      H15A          -30.4403982384        4.9476840128       10.0847179818  MEMB      48              0.0000000000
      5360        48  CHL1      H15B          -29.0679283244        6.1058804015        9.9054993759  MEMB      48              0.0000000000
      5361        48  CHL1      C16           -28.8586014986        4.2734225855        8.7215319977  MEMB      48              0.0000000000
      5362        48  CHL1      H16A          -29.6865181361        3.9802592584        8.0487558451  MEMB      48              0.0000000000
      5363        48  CHL1      H16B          -28.1589483347        4.9322968863        8.1632368602  MEMB      48              0.0000000000
      5364        48  CHL1      C17           -28.1141252190        2.9896460221        9.2171546351  MEMB      48              0.0000000000
      5365        48  CHL1      H17           -27.0308847554        3.2709559601        9.2054053063  MEMB      48              0.0000000000
      5366        48  CHL1      C13           -28.4914948043        2.8405637551       10.7206774435  MEMB      48              0.0000000000
      5367        48  CHL1      C18           -29.8672344892        2.1645270064       10.9027803752  MEMB      48              0.0000000000
      5368        48  CHL1      H18A          -30.0854955986        2.0209256589       11.9782644871  MEMB      48              0.0000000000
      5369        48  CHL1      H18B          -30.6952640549        2.7417652694       10.4503407119  MEMB      48              0.0000000000
      5370        48  CHL1      H18C          -29.8314893274        1.1408446001       10.4907397943  MEMB      48              0.0000000000
      5371        48  CHL1      C12           -27.5018942580        2.1134679447       11.6573765870  MEMB      48              0.0000000000
      5372        48  CHL1      H12A          -27.5620569867        1.0213062159       11.4659629053  MEMB      48              0.0000000000
      5373        48  CHL1      H12B          -26.4845237762        2.4616192779       11.3915889412  MEMB      48              0.0000000000
      5374        48  CHL1      C11           -27.8289307131        2.3502096176       13.1582715118  MEMB      48              0.0000000000
      5375        48  CHL1      H11A          -28.7447933581        1.7896489510       13.4194873985  MEMB      48              0.0000000000
      5376        48  CHL1      H11B          -27.0644261280        1.9264328408       13.8342795836  MEMB      48              0.0000000000
      5377        48  CHL1      C9            -28.0292207174        3.8531758121       13.4978959658  MEMB      48              0.0000000000
      5378        48  CHL1      H9            -27.0330686255        4.3058619581       13.2688974897  MEMB      48              0.0000000000
      5379        48  CHL1      C10           -28.3221476159        4.1586752791       14.9987355246  MEMB      48              0.0000000000
      5380        48  CHL1      C19           -29.4564036156        3.2516030079       15.5426993772  MEMB      48              0.0000000000
      5381        48  CHL1      H19A          -29.6514668450        3.4699051176       16.6098754481  MEMB      48              0.0000000000
      5382        48  CHL1      H19B          -30.3979575753        3.3926358276       14.9725873224  MEMB      48              0.0000000000
      5383        48  CHL1      H19C          -29.1742539340        2.1845696013       15.5325006597  MEMB      48              0.0000000000
      5384        48  CHL1      C1            -27.0298816854        3.8959254400       15.8143188920  MEMB      48              0.0000000000
      5385        48  CHL1      H1A           -26.9008431166        2.7937729517       15.8236361015  MEMB      48              0.0000000000
      5386        48  CHL1      H1B           -26.1730280779        4.3367639186       15.2596262746  MEMB      48              0.0000000000
      5387        48  CHL1      C2            -27.0116072976        4.4422674575       17.2639166515  MEMB      48              0.0000000000
      5388        48  CHL1      H2A           -25.9623111159        4.3993375064       17.6298197139  MEMB      48              0.0000000000
      5389        48  CHL1      H2B           -27.6370126938        3.7783762114       17.8998076775  MEMB      48              0.0000000000
      5390        48  CHL1      C20           -28.3251579219        1.7991065932        8.2623128026  MEMB      48              0.0000000000
      5391        48  CHL1      H20           -29.3580675365        1.4047368570        8.3762356769  MEMB      48              0.0000000000
      5392        48  CHL1      C21           -27.4170678364        0.6286905797        8.6357835424  MEMB      48              0.0000000000
      5393        48  CHL1      H21A          -27.4102699054       -0.1601938074        7.8515188917  MEMB      48              0.0000000000
      5394        48  CHL1      H21B          -27.6871519764        0.1592049021        9.5905045612  MEMB      48              0.0000000000
      5395        48  CHL1      H21C          -26.3912497918        0.9901375980        8.7925703526  MEMB      48              0.0000000000
      5396        48  CHL1      C22           -28.1939428053        2.1430436783        6.7497940475  MEMB      48              0.0000000000
      5397        48  CHL1      H22A          -28.2818885066        1.1763946575        6.1981249597  MEMB      48              0.0000000000
      5398        48  CHL1      H22B          -29.0657791383        2.7564951760        6.4257860732  MEMB      48              0.0000000000
      5399        48  CHL1      C23           -26.9766220546        3.0001698221        6.3249458332  MEMB      48              0.0000000000
      5400        48  CHL1      H23A          -26.7366693329        3.7819957968        7.0510338899  MEMB      48              0.0000000000
      5401        48  CHL1      H23B          -26.0809102628        2.4285626817        6.0754461268  MEMB      48              0.0000000000
      5402        48  CHL1      C24           -27.1647922115        3.6581782503        4.9794827726  MEMB      48              0.0000000000
      5403        48  CHL1      H24A          -27.7062257503        2.7645970952        4.6110901725  MEMB      48              0.0000000000
      5404        48  CHL1      H24B          -27.9075004515        4.4653828488        4.9690143806  MEMB      48              0.0000000000
      5405        48  CHL1      C25           -25.8344226855        4.0835801431        4.2212258681  MEMB      48              0.0000000000
      5406        48  CHL1      H25           -25.1583171831        3.1820314776        4.1881891262  MEMB      48              0.0000000000
      5407        48  CHL1      C26           -25.9093745888        4.7998006668        2.8395532254  MEMB      48              0.0000000000
      5408        48  CHL1      H26A          -26.6834250024        5.5404220310        2.6241421729  MEMB      48              0.0000000000
      5409        48  CHL1      H26B          -24.9478619184        4.9320233568        2.3070355477  MEMB      48              0.0000000000
      5410        48  CHL1      H26C          -26.3511277424        4.1939782213        2.1359994736  MEMB      48              0.0000000000
      5411        48  CHL1      C27           -25.1952846598        5.2142893783        4.9553491806  MEMB      48              0.0000000000
      5412        48  CHL1      H27A          -25.6253780354        6.1535190075        4.5248250179  MEMB      48              0.0000000000
      5413        48  CHL1      H27B          -25.4846288026        5.1308486293        6.0081378608  MEMB      48              0.0000000000
      5414        48  CHL1      H27C          -24.0951801995        5.2156578690        4.8231786718  MEMB      48              0.0000000000
      5415        49  SOPE      N              -0.0699227296       29.6871789467       23.5527491065  MEMB      49              0.0000000000
      5416        49  SOPE      HN1            -0.2296371717       30.6211088438       23.1189593013  MEMB      49              0.0000000000
      5417        49  SOPE      HN2            -0.7481903458       29.0183247042       23.1371392263  MEMB      49              0.0000000000
      5418        49  SOPE      HN3            -0.2255560089       29.7486539973       24.5849776937  MEMB      49              0.0000000000
      5419        49  SOPE      C12             1.2898869256       29.1434696776       23.1817404526  MEMB      49              0.0000000000
      5420        49  SOPE      H12A            1.1019373579       28.1527879071       22.7195892543  MEMB      49              0.0000000000
      5421        49  SOPE      H12B            1.8549336833       28.9714929268       24.1134129061  MEMB      49              0.0000000000
      5422        49  SOPE      C11             2.0766843287       30.0539987092       22.2161140494  MEMB      49              0.0000000000
      5423        49  SOPE      H11A            3.0487184848       29.5626451692       21.9434170880  MEMB      49              0.0000000000
      5424        49  SOPE      H11B            2.3827147898       30.9803197472       22.6968383259  MEMB      49              0.0000000000
      5425        49  SOPE      P               1.2669983202       29.4653655024       19.8475984009  MEMB      49              0.0000000000
      5426        49  SOPE      O13            -0.0967092277       28.8713291193       19.8852770147  MEMB      49              0.0000000000
      5427        49  SOPE      O14             2.3922435680       28.5290197791       19.9633694441  MEMB      49              0.0000000000
      5428        49  SOPE      O12             1.3015246259       30.4527406399       21.0922785571  MEMB      49              0.0000000000
      5429        49  SOPE      O11             1.4311865553       30.5062115868       18.6654789028  MEMB      49              0.0000000000
      5430        49  SOPE      C1              0.3421883374       31.2243232422       18.0758790060  MEMB      49              0.0000000000
      5431        49  SOPE      HA              0.6357257833       32.2934294286       18.0148037208  MEMB      49              0.0000000000
      5432        49  SOPE      HB             -0.6093133478       31.1670445549       18.6374444662  MEMB      49              0.0000000000
      5433        49  SOPE      C2             -0.0168221898       30.7278385546       16.6674710921  MEMB      49              0.0000000000
      5434        49  SOPE      HS             -0.3419932182       29.6607278409       16.7123229347  MEMB      49              0.0000000000
      5435        49  SOPE      O21             1.1235812526       30.7887991869       15.9258544586  MEMB      49              0.0000000000
      5436        49  SOPE      C21             1.1264576726       29.9017351048       14.9805932352  MEMB      49              0.0000000000
      5437        49  SOPE      O22             0.3822937274       29.0232011701       14.6367044004  MEMB      49              0.0000000000
      5438        49  SOPE      C22             2.2539429679       30.0991004527       14.3545180420  MEMB      49              0.0000000000
      5439        49  SOPE      H2R             2.8314445848       29.7027073049       15.2614295968  MEMB      49              0.0000000000
      5440        49  SOPE      H2S             2.5417936418       31.1590933951       14.3546431296  MEMB      49              0.0000000000
      5441        49  SOPE      C3             -1.0508563451       31.6235778439       15.9625955622  MEMB      49              0.0000000000
      5442        49  SOPE      HX             -0.7636552570       32.6869730798       16.1239358241  MEMB      49              0.0000000000
      5443        49  SOPE      HY             -1.9944936685       31.4229315628       16.5019605471  MEMB      49              0.0000000000
      5444        49  SOPE      O31            -1.1250778801       31.4105288880       14.5336917130  MEMB      49              0.0000000000
      5445        49  SOPE      C31            -2.0006934731       30.4856664552       14.1815140945  MEMB      49              0.0000000000
      5446        49  SOPE      O32            -2.7689568572       29.8960128449       14.9142958718  MEMB      49              0.0000000000
      5447        49  SOPE      C32            -1.9351154343       30.2533494038       12.7015392792  MEMB      49              0.0000000000
      5448        49  SOPE      H2X            -1.7809055455       29.1574166417       12.5814414932  MEMB      49              0.0000000000
      5449        49  SOPE      H2Y            -1.0663126747       30.7975189836       12.2864472793  MEMB      49              0.0000000000
      5450        49  SOPE      C23             2.1976883153       29.3523335303       12.9219727791  MEMB      49              0.0000000000
      5451        49  SOPE      H3R             2.4605965947       28.2734414960       12.9121198772  MEMB      49              0.0000000000
      5452        49  SOPE      H3S             3.0436602209       29.6731532013       12.3448361458  MEMB      49              0.0000000000
      5453        49  SOPE      C24             1.9504253410       30.0065174317       11.5875200744  MEMB      49              0.0000000000
      5454        49  SOPE      H4R             2.3973471102       29.4882458464       10.6529776630  MEMB      49              0.0000000000
      5455        49  SOPE      H4S             0.9235044133       29.7762039218       11.8235382895  MEMB      49              0.0000000000
      5456        49  SOPE      C25             2.1944685847       31.4901256260       11.4749816790  MEMB      49              0.0000000000
      5457        49  SOPE      H5R             1.9562707142       32.0398382744       12.4072829530  MEMB      49              0.0000000000
      5458        49  SOPE      H5S             3.1748210448       31.8644380179       11.1951369728  MEMB      49              0.0000000000
      5459        49  SOPE      C26             1.3740315742       31.7069063441       10.2640040613  MEMB      49              0.0000000000
      5460        49  SOPE      H6R             1.8229941761       31.3634771025        9.3245897492  MEMB      49              0.0000000000
      5461        49  SOPE      H6S             0.4125697214       31.2155929400       10.5471415460  MEMB      49              0.0000000000
      5462        49  SOPE      C27             0.9996995216       33.0554742106       10.0012255737  MEMB      49              0.0000000000
      5463        49  SOPE      H7R             1.1823453431       33.2896261740       11.0237900591  MEMB      49              0.0000000000
      5464        49  SOPE      H7S             1.8504345405       33.7119403095        9.6909631505  MEMB      49              0.0000000000
      5465        49  SOPE      C28            -0.5144713916       32.8714974786        9.3402997421  MEMB      49              0.0000000000
      5466        49  SOPE      H8R            -0.2598519352       32.4052624306        8.4401533052  MEMB      49              0.0000000000
      5467        49  SOPE      H8S            -1.2613665361       32.3750361347        9.8702802814  MEMB      49              0.0000000000
      5468        49  SOPE      C29            -1.3802367822       33.9704890753        8.9517933354  MEMB      49              0.0000000000
      5469        49  SOPE      H91            -0.5699059494       34.4110359175        9.4817596106  MEMB      49              0.0000000000
      5470        49  SOPE      C210           -2.5168359244       34.6910366091        8.9335573608  MEMB      49              0.0000000000
      5471        49  SOPE      H101           -2.6284522652       35.7828639252        8.4614275091  MEMB      49              0.0000000000
      5472        49  SOPE      C211           -3.5075883398       34.3882836708        9.9771671780  MEMB      49              0.0000000000
      5473        49  SOPE      H11R           -3.7622396802       35.1295289128       10.7298613086  MEMB      49              0.0000000000
      5474        49  SOPE      H11S           -3.3123787419       33.4212458948       10.4218591889  MEMB      49              0.0000000000
      5475        49  SOPE      C212           -4.5819562462       34.4880330685        9.1393624284  MEMB      49              0.0000000000
      5476        49  SOPE      H12R           -4.6421981461       35.5520886972        8.7830281457  MEMB      49              0.0000000000
      5477        49  SOPE      H12S           -5.4592601477       34.1195261992        9.7413494575  MEMB      49              0.0000000000
      5478        49  SOPE      C213           -4.3629966992       33.7422489744        8.0018141780  MEMB      49              0.0000000000
      5479        49  SOPE      H13R           -5.3439990165       33.3478016073        8.1850996063  MEMB      49              0.0000000000
      5480        49  SOPE      H13S           -3.6157077281       32.9662076829        8.3811807401  MEMB      49              0.0000000000
      5481        49  SOPE      C214           -4.0064105478       34.5662298365        6.6834498250  MEMB      49              0.0000000000
      5482        49  SOPE      H14R           -3.8572202218       35.6117623172        6.9478939220  MEMB      49              0.0000000000
      5483        49  SOPE      H14S           -4.8655215376       34.4538501275        6.0279753858  MEMB      49              0.0000000000
      5484        49  SOPE      C215           -2.5726124087       34.4759081358        6.0607265917  MEMB      49              0.0000000000
      5485        49  SOPE      H15R           -2.8404634420       33.6275310924        6.5704262911  MEMB      49              0.0000000000
      5486        49  SOPE      H15S           -1.7463109717       33.8178687702        6.3968245451  MEMB      49              0.0000000000
      5487        49  SOPE      C216           -2.4425473569       34.4890989808        4.4994438616  MEMB      49              0.0000000000
      5488        49  SOPE      H16R           -2.5390005167       35.5316571508        4.2379493410  MEMB      49              0.0000000000
      5489        49  SOPE      H16S           -3.4401615071       34.3174530828        4.0749147227  MEMB      49              0.0000000000
      5490        49  SOPE      C217           -1.3999186203       33.3316613838        3.9245580923  MEMB      49              0.0000000000
      5491        49  SOPE      H17R           -1.2083014918       32.5190922487        4.6024508406  MEMB      49              0.0000000000
      5492        49  SOPE      H17S           -0.6237266417       33.7216278873        4.3149135129  MEMB      49              0.0000000000
      5493        49  SOPE      C218           -0.9608648086       32.6210893506        2.5182641412  MEMB      49              0.0000000000
      5494        49  SOPE      H18R           -0.2499185582       32.9285794376        1.7577047587  MEMB      49              0.0000000000
      5495        49  SOPE      H18S           -1.6215619661       32.8693039537        1.8402418950  MEMB      49              0.0000000000
      5496        49  SOPE      H18T           -1.6005628201       31.8124896627        2.1401440948  MEMB      49              0.0000000000
      5497        49  SOPE      C33            -3.2588020369       30.7854303503       12.1287716813  MEMB      49              0.0000000000
      5498        49  SOPE      H3X            -3.3633079474       31.8517546225       12.4159465936  MEMB      49              0.0000000000
      5499        49  SOPE      H3Y            -4.1056232383       30.2068101947       12.5789171931  MEMB      49              0.0000000000
      5500        49  SOPE      C34            -3.3441521237       30.7451782535       10.6133145674  MEMB      49              0.0000000000
      5501        49  SOPE      H4X            -2.6403678729       31.3516100002       10.0828386132  MEMB      49              0.0000000000
      5502        49  SOPE      H4Y            -4.3799631533       30.9747414646       10.2689639081  MEMB      49              0.0000000000
      5503        49  SOPE      C35            -2.8993764161       29.4341125841       10.1125823940  MEMB      49              0.0000000000
      5504        49  SOPE      H5X            -3.5308939608       28.9197097362       10.7841088112  MEMB      49              0.0000000000
      5505        49  SOPE      H5Y            -1.9337616751       28.9813058500       10.3430992048  MEMB      49              0.0000000000
      5506        49  SOPE      C36            -3.1462489515       29.1981138121        8.6881238652  MEMB      49              0.0000000000
      5507        49  SOPE      H6X            -4.2597428120       29.2969639657        8.4487448139  MEMB      49              0.0000000000
      5508        49  SOPE      H6Y            -2.7056557849       28.1926420309        8.6102430033  MEMB      49              0.0000000000
      5509        49  SOPE      C37            -2.1292667006       29.6003554535        7.6374513097  MEMB      49              0.0000000000
      5510        49  SOPE      H7X            -1.1173736370       29.3968336403        7.9483953572  MEMB      49              0.0000000000
      5511        49  SOPE      H7Y            -1.9867523393       30.6791707195        7.8190155144  MEMB      49              0.0000000000
      5512        49  SOPE      C38            -2.4556266456       29.1395820854        6.1361992140  MEMB      49              0.0000000000
      5513        49  SOPE      H8X            -2.0805812885       28.1556572558        5.9116713329  MEMB      49              0.0000000000
      5514        49  SOPE      H8Y            -1.7696823779       29.7737432704        5.5484156951  MEMB      49              0.0000000000
      5515        49  SOPE      C39            -3.9359759426       29.1479986406        5.4991682048  MEMB      49              0.0000000000
      5516        49  SOPE      H9X            -4.6174105813       29.9589720517        5.3352355658  MEMB      49              0.0000000000
      5517        49  SOPE      H9Y            -4.7157009418       28.9341666006        6.2356662736  MEMB      49              0.0000000000
      5518        49  SOPE      C310           -4.0456615089       29.0727212304        4.0116365709  MEMB      49              0.0000000000
      5519        49  SOPE      H10X           -3.1691282407       29.4709721990        3.5354269201  MEMB      49              0.0000000000
      5520        49  SOPE      H10Y           -5.0335940255       29.4937106824        3.6170269342  MEMB      49              0.0000000000
      5521        49  SOPE      C311           -3.5054673647       27.7867232619        3.6317653244  MEMB      49              0.0000000000
      5522        49  SOPE      H11X           -4.5223155593       27.6149405639        3.5569162532  MEMB      49              0.0000000000
      5523        49  SOPE      H11Y           -3.1482533824       27.1866972062        4.4596179210  MEMB      49              0.0000000000
      5524        49  SOPE      C312           -3.2721749761       27.3095107734        2.2657990394  MEMB      49              0.0000000000
      5525        49  SOPE      H12X           -4.0611144742       27.6891327151        1.5593592935  MEMB      49              0.0000000000
      5526        49  SOPE      H12Y           -3.1383508394       26.1712987325        2.3345219406  MEMB      49              0.0000000000
      5527        49  SOPE      C313           -2.0014253481       27.4575092400        1.8063382315  MEMB      49              0.0000000000
      5528        49  SOPE      H13X           -1.9344282977       26.6418634114        1.0236896560  MEMB      49              0.0000000000
      5529        49  SOPE      H13Y           -1.3789972091       27.3634381036        2.7141761939  MEMB      49              0.0000000000
      5530        49  SOPE      C314           -1.9746232439       28.7448631992        1.1964296629  MEMB      49              0.0000000000
      5531        49  SOPE      H14X           -1.8175479076       29.5686731645        1.9204491508  MEMB      49              0.0000000000
      5532        49  SOPE      H14Y           -2.9526143272       28.9388645820        0.7189541319  MEMB      49              0.0000000000
      5533        49  SOPE      C315           -0.9189813594       28.4581141068        0.1765768421  MEMB      49              0.0000000000
      5534        49  SOPE      H15X           -0.4568990463       29.3450534674       -0.1393830254  MEMB      49              0.0000000000
      5535        49  SOPE      H15Y           -1.3241801831       27.9432112977       -0.7208399877  MEMB      49              0.0000000000
      5536        49  SOPE      C316            0.4091256611       28.0614530536        0.7171774224  MEMB      49              0.0000000000
      5537        49  SOPE      H16X            1.1301138051       28.1809936551       -0.1284822330  MEMB      49              0.0000000000
      5538        49  SOPE      H16Y            0.2810302101       26.9996581326        0.9780539066  MEMB      49              0.0000000000
      5539        49  SOPE      C317            0.8891454354       28.9113599376        1.9237703505  MEMB      49              0.0000000000
      5540        49  SOPE      H17X            1.8026945721       28.3880511550        2.2319230411  MEMB      49              0.0000000000
      5541        49  SOPE      H17Y            0.1473417983       28.9242706970        2.7491575790  MEMB      49              0.0000000000
      5542        49  SOPE      C318            1.2809371656       30.3618767047        1.7319037437  MEMB      49              0.0000000000
      5543        49  SOPE      H18X            0.3268466717       30.8956319473        1.5805892798  MEMB      49              0.0000000000
      5544        49  SOPE      H18Y            1.9762959562       30.4725913039        0.8625308645  MEMB      49              0.0000000000
      5545        49  SOPE      H18Z            1.6667663802       30.9448898640        2.5710050047  MEMB      49              0.0000000000
      5546        50  CHL1      C3            -26.1500208389      -18.4495560724       17.3026782655  MEMB      50              0.0000000000
      5547        50  CHL1      H3            -25.9242531543      -19.5452686574       17.4192158823  MEMB      50              0.0000000000
      5548        50  CHL1      O3            -26.0507403184      -17.9184397136       18.6254522792  MEMB      50              0.0000000000
      5549        50  CHL1      H3'           -26.7095836269      -18.3602402601       19.1629176222  MEMB      50              0.0000000000
      5550        50  CHL1      C4            -25.0334920206      -17.9208685917       16.4096732566  MEMB      50              0.0000000000
      5551        50  CHL1      H4A           -25.1110830912      -16.8514919935       16.6178001841  MEMB      50              0.0000000000
      5552        50  CHL1      H4B           -24.0670013823      -18.3130473550       16.7878034014  MEMB      50              0.0000000000
      5553        50  CHL1      C5            -25.1518841103      -18.0430285743       14.9051667840  MEMB      50              0.0000000000
      5554        50  CHL1      C6            -24.1351968967      -18.4436108077       14.1022546451  MEMB      50              0.0000000000
      5555        50  CHL1      H6            -23.1714951939      -18.7512240763       14.5272218636  MEMB      50              0.0000000000
      5556        50  CHL1      C7            -24.3425552806      -18.6940317489       12.6193879343  MEMB      50              0.0000000000
      5557        50  CHL1      H7A           -23.4664608403      -18.4429543642       12.0134142133  MEMB      50              0.0000000000
      5558        50  CHL1      H7B           -24.4780740796      -19.7730615034       12.3971854214  MEMB      50              0.0000000000
      5559        50  CHL1      C8            -25.6097519705      -18.0151951920       12.0682570993  MEMB      50              0.0000000000
      5560        50  CHL1      H8            -25.4177346739      -16.9295374398       12.1233413836  MEMB      50              0.0000000000
      5561        50  CHL1      C14           -25.9229582490      -18.5366064545       10.6719278502  MEMB      50              0.0000000000
      5562        50  CHL1      H14           -26.2073387373      -19.6112610716       10.8315153982  MEMB      50              0.0000000000
      5563        50  CHL1      C15           -24.8358968215      -18.6414717894        9.6094791149  MEMB      50              0.0000000000
      5564        50  CHL1      H15A          -24.2252008448      -17.7805612739        9.4383583667  MEMB      50              0.0000000000
      5565        50  CHL1      H15B          -24.1266661830      -19.4180092575        9.8839637821  MEMB      50              0.0000000000
      5566        50  CHL1      C16           -25.5638069121      -18.7804083039        8.2838464265  MEMB      50              0.0000000000
      5567        50  CHL1      H16A          -25.2543306370      -17.9452434548        7.6047804583  MEMB      50              0.0000000000
      5568        50  CHL1      H16B          -25.3423468956      -19.7480136125        7.8096536706  MEMB      50              0.0000000000
      5569        50  CHL1      C17           -27.0657101379      -18.6193689490        8.6047047840  MEMB      50              0.0000000000
      5570        50  CHL1      H17           -27.4354975213      -19.6452217165        8.7989501096  MEMB      50              0.0000000000
      5571        50  CHL1      C13           -27.1010974255      -17.9238453934        9.9737073626  MEMB      50              0.0000000000
      5572        50  CHL1      C18           -27.0025106223      -16.5209931304        9.7648528572  MEMB      50              0.0000000000
      5573        50  CHL1      H18A          -27.9555577987      -16.0504812068        9.4501064376  MEMB      50              0.0000000000
      5574        50  CHL1      H18B          -26.6948307434      -16.0291409799       10.7133295693  MEMB      50              0.0000000000
      5575        50  CHL1      H18C          -26.2589197489      -16.3640573576        8.9632679421  MEMB      50              0.0000000000
      5576        50  CHL1      C12           -28.2500923410      -18.0083363840       10.8703501604  MEMB      50              0.0000000000
      5577        50  CHL1      H12A          -29.1652440788      -17.4886461148       10.4989700339  MEMB      50              0.0000000000
      5578        50  CHL1      H12B          -28.2295756776      -19.0977992222       10.7591547255  MEMB      50              0.0000000000
      5579        50  CHL1      C11           -28.0713055575      -17.5983385925       12.3073084946  MEMB      50              0.0000000000
      5580        50  CHL1      H11A          -28.1181127021      -16.5098570018       12.2931431934  MEMB      50              0.0000000000
      5581        50  CHL1      H11B          -28.9536390489      -17.7927163519       12.9071855894  MEMB      50              0.0000000000
      5582        50  CHL1      C9            -26.8255045550      -18.2404393808       12.9317943222  MEMB      50              0.0000000000
      5583        50  CHL1      H9            -27.0205374969      -19.3466320208       12.9261881006  MEMB      50              0.0000000000
      5584        50  CHL1      C10           -26.5759863321      -17.7792673541       14.3640043882  MEMB      50              0.0000000000
      5585        50  CHL1      C19           -26.8419365157      -16.2754643686       14.5100636020  MEMB      50              0.0000000000
      5586        50  CHL1      H19A          -26.8461206518      -16.0189384466       15.5824503493  MEMB      50              0.0000000000
      5587        50  CHL1      H19B          -26.0593744292      -15.6834958379       14.0085590934  MEMB      50              0.0000000000
      5588        50  CHL1      H19C          -27.8338077489      -15.9565563243       14.1553933065  MEMB      50              0.0000000000
      5589        50  CHL1      C1            -27.6120009958      -18.4483251041       15.2041239450  MEMB      50              0.0000000000
      5590        50  CHL1      H1A           -28.6256712693      -18.1464368378       14.9363784863  MEMB      50              0.0000000000
      5591        50  CHL1      H1B           -27.5764269907      -19.5234114259       14.9760396940  MEMB      50              0.0000000000
      5592        50  CHL1      C2            -27.5250392410      -18.0514423366       16.6512943045  MEMB      50              0.0000000000
      5593        50  CHL1      H2A           -28.4492318924      -18.5932312915       16.8194406226  MEMB      50              0.0000000000
      5594        50  CHL1      H2B           -27.9621696274      -17.1131059227       17.0065594654  MEMB      50              0.0000000000
      5595        50  CHL1      C20           -27.7530928752      -18.0186685336        7.3778580625  MEMB      50              0.0000000000
      5596        50  CHL1      H20           -27.2667927864      -17.0895743252        7.0412048737  MEMB      50              0.0000000000
      5597        50  CHL1      C21           -29.1452337711      -17.5248700007        7.7055301127  MEMB      50              0.0000000000
      5598        50  CHL1      H21A          -29.4993137719      -16.9037780766        8.5213646279  MEMB      50              0.0000000000
      5599        50  CHL1      H21B          -29.4577730188      -18.3999385738        8.2650638777  MEMB      50              0.0000000000
      5600        50  CHL1      H21C          -29.7326248219      -17.2973273897        6.7847988903  MEMB      50              0.0000000000
      5601        50  CHL1      C22           -27.6562838902      -19.0501995139        6.1938913197  MEMB      50              0.0000000000
      5602        50  CHL1      H22A          -26.5811211305      -19.1315167044        5.9487284296  MEMB      50              0.0000000000
      5603        50  CHL1      H22B          -28.0011683052      -20.0791429436        6.4344248046  MEMB      50              0.0000000000
      5604        50  CHL1      C23           -28.2515257189      -18.6042793618        4.8607946574  MEMB      50              0.0000000000
      5605        50  CHL1      H23A          -29.3488994385      -18.5780713028        4.9076503899  MEMB      50              0.0000000000
      5606        50  CHL1      H23B          -27.9292275301      -17.5593321118        4.7195433248  MEMB      50              0.0000000000
      5607        50  CHL1      C24           -27.8306446005      -19.4985785422        3.6698060257  MEMB      50              0.0000000000
      5608        50  CHL1      H24A          -26.7521739023      -19.4937115581        3.4881654034  MEMB      50              0.0000000000
      5609        50  CHL1      H24B          -27.9929736421      -20.5411860599        4.0010903910  MEMB      50              0.0000000000
      5610        50  CHL1      C25           -28.6448879029      -19.1601327204        2.3773025676  MEMB      50              0.0000000000
      5611        50  CHL1      H25           -29.6565898984      -19.0694185741        2.8000021246  MEMB      50              0.0000000000
      5612        50  CHL1      C26           -28.5226889809      -17.7800278707        1.8488044836  MEMB      50              0.0000000000
      5613        50  CHL1      H26A          -29.1453594431      -17.7445657754        0.9203191021  MEMB      50              0.0000000000
      5614        50  CHL1      H26B          -28.9513920177      -17.1245686790        2.6300180111  MEMB      50              0.0000000000
      5615        50  CHL1      H26C          -27.4547703671      -17.5769311364        1.6637171328  MEMB      50              0.0000000000
      5616        50  CHL1      C27           -28.5636634276      -20.0999277712        1.1198951218  MEMB      50              0.0000000000
      5617        50  CHL1      H27A          -28.5387677408      -21.2208936778        1.1878460488  MEMB      50              0.0000000000
      5618        50  CHL1      H27B          -29.0249850723      -19.8769754015        0.1585096240  MEMB      50              0.0000000000
      5619        50  CHL1      H27C          -27.5935829686      -19.8022820247        1.0244022076  MEMB      50              0.0000000000
      5620        51  SAPE      N              28.6131408677       -1.3520156313       19.0753766393  MEMB      51              0.0000000000
      5621        51  SAPE      HN1            28.9949874600       -0.3818356649       19.0390503986  MEMB      51              0.0000000000
      5622        51  SAPE      HN2            29.2748849309       -1.8538616059       18.4527467379  MEMB      51              0.0000000000
      5623        51  SAPE      HN3            27.6892768402       -1.1812413807       18.6117553060  MEMB      51              0.0000000000
      5624        51  SAPE      C12            28.6544727780       -1.5025337917       20.4891045516  MEMB      51              0.0000000000
      5625        51  SAPE      H12A           28.2895756778       -2.5197880203       20.6508720884  MEMB      51              0.0000000000
      5626        51  SAPE      H12B           27.9174657890       -0.7739973215       20.8537544681  MEMB      51              0.0000000000
      5627        51  SAPE      C11            30.0745061698       -1.2130121150       20.9733335538  MEMB      51              0.0000000000
      5628        51  SAPE      H11A           30.0565099412       -1.6353466059       22.0024707660  MEMB      51              0.0000000000
      5629        51  SAPE      H11B           30.3003137327       -0.1235980000       21.0569793892  MEMB      51              0.0000000000
      5630        51  SAPE      P              31.2833311300       -3.3665579216       20.0043938200  MEMB      51              0.0000000000
      5631        51  SAPE      O13            31.2607706962       -3.9863944790       21.3327502437  MEMB      51              0.0000000000
      5632        51  SAPE      O14            30.3073374822       -3.7907659657       18.9692762854  MEMB      51              0.0000000000
      5633        51  SAPE      O12            31.0802471223       -1.7889050696       20.1399248586  MEMB      51              0.0000000000
      5634        51  SAPE      O11            32.7137068444       -3.4868859526       19.4606927993  MEMB      51              0.0000000000
      5635        51  SAPE      C1             33.8470825043       -2.8191346192       19.9941123746  MEMB      51              0.0000000000
      5636        51  SAPE      HA             33.5957466141       -1.7747594391       20.2296230913  MEMB      51              0.0000000000
      5637        51  SAPE      HB             34.2971977986       -3.3181498682       20.8754032298  MEMB      51              0.0000000000
      5638        51  SAPE      C2             34.9259389714       -2.8440753007       18.9330499544  MEMB      51              0.0000000000
      5639        51  SAPE      HS             35.8984748784       -2.4213577314       19.3308118919  MEMB      51              0.0000000000
      5640        51  SAPE      O21            34.3055013010       -2.2285589388       17.7369871694  MEMB      51              0.0000000000
      5641        51  SAPE      C21            34.3782975589       -0.9866214641       17.8724972804  MEMB      51              0.0000000000
      5642        51  SAPE      O22            34.9179245335       -0.5026206815       18.8301901145  MEMB      51              0.0000000000
      5643        51  SAPE      C22            33.9647452191       -0.2202226669       16.5649106115  MEMB      51              0.0000000000
      5644        51  SAPE      H2R            34.7115281097        0.4029242429       16.0182834277  MEMB      51              0.0000000000
      5645        51  SAPE      H2S            33.7943428018       -1.0155399310       15.8208705436  MEMB      51              0.0000000000
      5646        51  SAPE      C3             35.2902683756       -4.2989990781       18.6646716610  MEMB      51              0.0000000000
      5647        51  SAPE      HX             35.5158470891       -4.8579449687       19.5749708342  MEMB      51              0.0000000000
      5648        51  SAPE      HY             36.2819055359       -4.3511615527       18.1134108754  MEMB      51              0.0000000000
      5649        51  SAPE      O31            34.1120106309       -4.9532581918       18.1172785195  MEMB      51              0.0000000000
      5650        51  SAPE      C31            34.0574604313       -4.6238385255       16.8637156548  MEMB      51              0.0000000000
      5651        51  SAPE      O32            34.9398653899       -3.9484767785       16.3380731453  MEMB      51              0.0000000000
      5652        51  SAPE      C32            32.8708496115       -5.3474252133       16.2228525041  MEMB      51              0.0000000000
      5653        51  SAPE      H2X            32.5485956525       -6.2352273184       16.7958879277  MEMB      51              0.0000000000
      5654        51  SAPE      H2Y            32.8069778746       -5.6599757021       15.1450913494  MEMB      51              0.0000000000
      5655        51  SAPE      C23            32.8747161815        0.7232014801       16.9007777768  MEMB      51              0.0000000000
      5656        51  SAPE      H3R            33.3016129319        1.6423016992       17.3641129685  MEMB      51              0.0000000000
      5657        51  SAPE      H3S            32.2730041150        0.2001525908       17.6725530642  MEMB      51              0.0000000000
      5658        51  SAPE      C24            32.0546898729        0.9912711071       15.6642374912  MEMB      51              0.0000000000
      5659        51  SAPE      H4R            31.2090465841        1.5065764821       16.0332708319  MEMB      51              0.0000000000
      5660        51  SAPE      H4S            31.6786025749        0.0530295926       15.2140308450  MEMB      51              0.0000000000
      5661        51  SAPE      C25            32.7336147247        1.8407511683       14.6668223195  MEMB      51              0.0000000000
      5662        51  SAPE      H5R            32.8539415842        2.9052042875       14.8884180472  MEMB      51              0.0000000000
      5663        51  SAPE      C26            33.3063523050        1.3816185405       13.5781750708  MEMB      51              0.0000000000
      5664        51  SAPE      H6R            33.8620893604        2.1286746019       13.0690425707  MEMB      51              0.0000000000
      5665        51  SAPE      C27            33.4542162257       -0.0020224788       13.0293193292  MEMB      51              0.0000000000
      5666        51  SAPE      H7R            32.7268882563       -0.6724480348       13.5179717734  MEMB      51              0.0000000000
      5667        51  SAPE      H7S            34.4673592772       -0.3795590152       13.3087325410  MEMB      51              0.0000000000
      5668        51  SAPE      C28            33.1782811886       -0.0085143958       11.5341961700  MEMB      51              0.0000000000
      5669        51  SAPE      H8R            32.2032623128        0.3111473383       11.2140541177  MEMB      51              0.0000000000
      5670        51  SAPE      C29            33.9526206781       -0.4196433042       10.5420481324  MEMB      51              0.0000000000
      5671        51  SAPE      H9R            33.7478165231       -0.4105793615        9.4741396702  MEMB      51              0.0000000000
      5672        51  SAPE      C210           35.2354178966       -0.9440606234       10.7397858087  MEMB      51              0.0000000000
      5673        51  SAPE      H10R           35.6591153472       -0.1419225530       11.3501304499  MEMB      51              0.0000000000
      5674        51  SAPE      H10S           35.8056163710       -0.6222867550        9.8284337983  MEMB      51              0.0000000000
      5675        51  SAPE      C211           35.3400171331       -2.4305040726       11.2305787182  MEMB      51              0.0000000000
      5676        51  SAPE      H11R           35.8911760381       -2.7059857541       12.1577108976  MEMB      51              0.0000000000
      5677        51  SAPE      C212           35.2373827258       -3.4553294626       10.4106485042  MEMB      51              0.0000000000
      5678        51  SAPE      H12R           35.4376333441       -4.4671116530       10.7969511286  MEMB      51              0.0000000000
      5679        51  SAPE      C213           34.9900337480       -3.2039791466        8.9628523405  MEMB      51              0.0000000000
      5680        51  SAPE      H13R           35.5798253677       -2.3487675942        8.5394507449  MEMB      51              0.0000000000
      5681        51  SAPE      H13S           33.9357255392       -2.8730644561        8.9196988228  MEMB      51              0.0000000000
      5682        51  SAPE      C214           35.2124073731       -4.4048595516        8.1116836731  MEMB      51              0.0000000000
      5683        51  SAPE      H14R           35.6384294569       -5.3086763599        8.5786051973  MEMB      51              0.0000000000
      5684        51  SAPE      C215           34.8744451187       -4.4303689553        6.8248412422  MEMB      51              0.0000000000
      5685        51  SAPE      H15R           35.1545268759       -5.2661062294        6.2228935655  MEMB      51              0.0000000000
      5686        51  SAPE      C216           34.2486858804       -3.3960991653        5.9736783111  MEMB      51              0.0000000000
      5687        51  SAPE      H16R           33.7352246243       -2.6481441915        6.6024033522  MEMB      51              0.0000000000
      5688        51  SAPE      H16S           33.5303307884       -3.8956527353        5.3129266514  MEMB      51              0.0000000000
      5689        51  SAPE      C217           35.1695324789       -2.6910092165        5.0205852366  MEMB      51              0.0000000000
      5690        51  SAPE      H17R           35.6425931423       -3.2986624655        4.2263207103  MEMB      51              0.0000000000
      5691        51  SAPE      H17S           35.9637096698       -2.1863722722        5.6242084332  MEMB      51              0.0000000000
      5692        51  SAPE      C218           34.4299592814       -1.6467543534        4.2424837078  MEMB      51              0.0000000000
      5693        51  SAPE      H18R           33.8472793549       -1.1178957140        5.0202512120  MEMB      51              0.0000000000
      5694        51  SAPE      H18S           33.6644627966       -1.9924367140        3.5173309045  MEMB      51              0.0000000000
      5695        51  SAPE      C219           35.6527153505       -0.9755323474        3.6392561479  MEMB      51              0.0000000000
      5696        51  SAPE      H19R           36.2504523679       -1.6346584918        2.9868910783  MEMB      51              0.0000000000
      5697        51  SAPE      H19S           36.2423554430       -0.4855822887        4.4173321876  MEMB      51              0.0000000000
      5698        51  SAPE      C220           35.5390175188       -0.1522753923        2.5314634942  MEMB      51              0.0000000000
      5699        51  SAPE      H20R           34.4813665021       -0.3047126849        2.1806771669  MEMB      51              0.0000000000
      5700        51  SAPE      H20S           36.2647530508        0.6768690520        2.2823605625  MEMB      51              0.0000000000
      5701        51  SAPE      H20T           35.3459772765        0.8900395667        2.5929474587  MEMB      51              0.0000000000
      5702        51  SAPE      C33            31.9922780727       -4.3361654727       15.8772753351  MEMB      51              0.0000000000
      5703        51  SAPE      H3X            32.5154516159       -3.6695485450       15.1343822972  MEMB      51              0.0000000000
      5704        51  SAPE      H3Y            31.8591463436       -3.8450810528       16.8650975260  MEMB      51              0.0000000000
      5705        51  SAPE      C34            30.7451768739       -5.0031485819       15.3796904915  MEMB      51              0.0000000000
      5706        51  SAPE      H4X            30.3683832164       -5.7318947228       16.1284843887  MEMB      51              0.0000000000
      5707        51  SAPE      H4Y            30.7642978468       -5.4592212846       14.3574938865  MEMB      51              0.0000000000
      5708        51  SAPE      C35            30.0307337990       -3.7578270959       15.3403096969  MEMB      51              0.0000000000
      5709        51  SAPE      H5X            30.1984587505       -3.2521714511       16.3078106699  MEMB      51              0.0000000000
      5710        51  SAPE      H5Y            29.0210099438       -3.8477163909       15.6539822868  MEMB      51              0.0000000000
      5711        51  SAPE      C36            30.4894462094       -3.0528987281       14.0287862135  MEMB      51              0.0000000000
      5712        51  SAPE      H6X            31.4159946020       -3.3739309840       13.5447680627  MEMB      51              0.0000000000
      5713        51  SAPE      H6Y            30.6530887069       -1.9722778249       14.2256515002  MEMB      51              0.0000000000
      5714        51  SAPE      C37            29.4721382762       -3.2802678967       12.9345430736  MEMB      51              0.0000000000
      5715        51  SAPE      H7X            28.6602628248       -2.6067496548       13.0023094210  MEMB      51              0.0000000000
      5716        51  SAPE      H7Y            29.0307923485       -4.2735798891       13.0924694057  MEMB      51              0.0000000000
      5717        51  SAPE      C38            29.7639758458       -2.7518197291       11.5483481403  MEMB      51              0.0000000000
      5718        51  SAPE      H8X            30.1457032288       -3.7385325053       11.2045239496  MEMB      51              0.0000000000
      5719        51  SAPE      H8Y            30.4872850409       -1.9473959830       11.5853121883  MEMB      51              0.0000000000
      5720        51  SAPE      C39            28.5750585209       -2.2263595164       10.6703646301  MEMB      51              0.0000000000
      5721        51  SAPE      H9X            27.9450913500       -1.3987578648       10.6143723030  MEMB      51              0.0000000000
      5722        51  SAPE      H9Y            27.7251865849       -2.6611578579       11.1720139054  MEMB      51              0.0000000000
      5723        51  SAPE      C310           28.6665572421       -1.9129288747        9.2404881541  MEMB      51              0.0000000000
      5724        51  SAPE      H10X           29.4798754864       -1.1849969343        9.1579770371  MEMB      51              0.0000000000
      5725        51  SAPE      H10Y           27.7281543596       -1.7756423099        8.6567757407  MEMB      51              0.0000000000
      5726        51  SAPE      C311           29.1085489094       -3.0113370742        8.5941365761  MEMB      51              0.0000000000
      5727        51  SAPE      H11X           28.2549668861       -3.6392650171        8.2906506765  MEMB      51              0.0000000000
      5728        51  SAPE      H11Y           29.6609898527       -3.5129602352        9.3992218067  MEMB      51              0.0000000000
      5729        51  SAPE      C312           30.0082518348       -2.6791374849        7.5008808343  MEMB      51              0.0000000000
      5730        51  SAPE      H12X           30.5983797240       -3.5431770152        7.8319721238  MEMB      51              0.0000000000
      5731        51  SAPE      H12Y           30.9722903967       -2.2453602279        7.6731553164  MEMB      51              0.0000000000
      5732        51  SAPE      C313           29.2248625712       -2.4487451951        6.1520840666  MEMB      51              0.0000000000
      5733        51  SAPE      H13X           28.6117000282       -1.5915378489        6.3991011345  MEMB      51              0.0000000000
      5734        51  SAPE      H13Y           28.4445448102       -3.1279178015        5.7711222739  MEMB      51              0.0000000000
      5735        51  SAPE      C314           29.9166932014       -2.3397628642        4.8355875707  MEMB      51              0.0000000000
      5736        51  SAPE      H14X           29.8212054682       -3.1549932101        4.0894009383  MEMB      51              0.0000000000
      5737        51  SAPE      H14Y           31.0123393957       -2.2510734924        4.9811945205  MEMB      51              0.0000000000
      5738        51  SAPE      C315           29.0672927632       -2.0300582494        3.6639433569  MEMB      51              0.0000000000
      5739        51  SAPE      H15X           28.3116686446       -1.3948759707        4.0731613540  MEMB      51              0.0000000000
      5740        51  SAPE      H15Y           28.5495931748       -2.7520254199        2.9126768763  MEMB      51              0.0000000000
      5741        51  SAPE      C316           30.1660643628       -1.3837055401        3.0163387356  MEMB      51              0.0000000000
      5742        51  SAPE      H16X           30.9150792679       -2.1910734529        2.8801975035  MEMB      51              0.0000000000
      5743        51  SAPE      H16Y           30.6554699112       -0.5505440712        3.5424119567  MEMB      51              0.0000000000
      5744        51  SAPE      C317           29.5081743248       -0.9165600559        1.8881555128  MEMB      51              0.0000000000
      5745        51  SAPE      H17X           28.6999097332       -0.3309274165        2.3934582389  MEMB      51              0.0000000000
      5746        51  SAPE      H17Y           29.2793490463       -1.7044672733        1.0890904643  MEMB      51              0.0000000000
      5747        51  SAPE      C318           29.8235885276        0.3378161584        1.3370353054  MEMB      51              0.0000000000
      5748        51  SAPE      H18X           30.7201746883        0.1213352134        0.9760948431  MEMB      51              0.0000000000
      5749        51  SAPE      H18Y           30.5387433802        1.0104114413        1.7568376454  MEMB      51              0.0000000000
      5750        51  SAPE      H18Z           29.3400635679        0.4780527663        0.3213607546  MEMB      51              0.0000000000
      5751        52  CHL1      C3             -4.8646524954      -30.1592090810       17.3101561714  MEMB      52              0.0000000000
      5752        52  CHL1      H3             -5.7845752626      -29.5475816344       17.1898510889  MEMB      52              0.0000000000
      5753        52  CHL1      O3             -4.6692382136      -30.4210488933       18.6867234623  MEMB      52              0.0000000000
      5754        52  CHL1      H3'            -4.5773018539      -29.5398552484       19.0407931493  MEMB      52              0.0000000000
      5755        52  CHL1      C4             -5.0446364628      -31.4810397969       16.6327753930  MEMB      52              0.0000000000
      5756        52  CHL1      H4A            -4.1469708549      -32.1030975057       16.8705955401  MEMB      52              0.0000000000
      5757        52  CHL1      H4B            -5.8851724963      -32.0491714580       17.1007810947  MEMB      52              0.0000000000
      5758        52  CHL1      C5             -5.2195796804      -31.2600760322       15.1359235101  MEMB      52              0.0000000000
      5759        52  CHL1      C6             -6.3086366914      -31.6945546498       14.4887003781  MEMB      52              0.0000000000
      5760        52  CHL1      H6             -7.1035332795      -32.1777860722       15.0657788078  MEMB      52              0.0000000000
      5761        52  CHL1      C7             -6.4437758271      -31.7921190298       13.0014046059  MEMB      52              0.0000000000
      5762        52  CHL1      H7A            -6.8110024349      -32.8012481494       12.6821810217  MEMB      52              0.0000000000
      5763        52  CHL1      H7B            -7.2068658173      -31.0619782891       12.6880062858  MEMB      52              0.0000000000
      5764        52  CHL1      C8             -5.1006769449      -31.4762480763       12.2898565013  MEMB      52              0.0000000000
      5765        52  CHL1      H8             -4.4706958672      -32.3891498932       12.3601800411  MEMB      52              0.0000000000
      5766        52  CHL1      C14            -5.3543928350      -31.1370705491       10.8385034966  MEMB      52              0.0000000000
      5767        52  CHL1      H14            -6.0247181720      -30.2402698317       10.8341208105  MEMB      52              0.0000000000
      5768        52  CHL1      C15            -6.0806506248      -32.2057843927       10.0470589495  MEMB      52              0.0000000000
      5769        52  CHL1      H15A           -5.6877592639      -33.2200238551       10.2559515937  MEMB      52              0.0000000000
      5770        52  CHL1      H15B           -7.1039727779      -32.2943512528       10.2914641154  MEMB      52              0.0000000000
      5771        52  CHL1      C16            -5.9263796209      -31.7385654435        8.6071683388  MEMB      52              0.0000000000
      5772        52  CHL1      H16A           -5.5664452156      -32.6362630903        8.0730332976  MEMB      52              0.0000000000
      5773        52  CHL1      H16B           -6.8764064878      -31.4002789188        8.1403598956  MEMB      52              0.0000000000
      5774        52  CHL1      C17            -4.8077636619      -30.6406055779        8.5686385775  MEMB      52              0.0000000000
      5775        52  CHL1      H17            -5.2953323749      -29.6374409675        8.5247510763  MEMB      52              0.0000000000
      5776        52  CHL1      C13            -4.1461317027      -30.7619092180        9.9807017939  MEMB      52              0.0000000000
      5777        52  CHL1      C18            -3.1876260960      -31.9683571672        9.9360154092  MEMB      52              0.0000000000
      5778        52  CHL1      H18A           -2.3655893689      -31.7482479521        9.2294985031  MEMB      52              0.0000000000
      5779        52  CHL1      H18B           -2.7402150611      -32.2013915757       10.9239151545  MEMB      52              0.0000000000
      5780        52  CHL1      H18C           -3.6977569988      -32.8781938640        9.5801092059  MEMB      52              0.0000000000
      5781        52  CHL1      C12            -3.5186021930      -29.5013309791       10.6253030753  MEMB      52              0.0000000000
      5782        52  CHL1      H12A           -2.5895667044      -29.1980387930       10.1026398384  MEMB      52              0.0000000000
      5783        52  CHL1      H12B           -4.2562132534      -28.6778308484       10.5204642826  MEMB      52              0.0000000000
      5784        52  CHL1      C11            -3.2052009323      -29.7216965968       12.1286717822  MEMB      52              0.0000000000
      5785        52  CHL1      H11A           -2.3622211787      -30.4340035133       12.1749800254  MEMB      52              0.0000000000
      5786        52  CHL1      H11B           -2.8149268182      -28.7987795455       12.6082098741  MEMB      52              0.0000000000
      5787        52  CHL1      C9             -4.3999251889      -30.2937448132       12.9549602754  MEMB      52              0.0000000000
      5788        52  CHL1      H9             -5.1812395518      -29.4913550704       12.9780625164  MEMB      52              0.0000000000
      5789        52  CHL1      C10            -4.0430111842      -30.6008496269       14.4238913679  MEMB      52              0.0000000000
      5790        52  CHL1      C19            -2.7585714073      -31.4568123557       14.4438157092  MEMB      52              0.0000000000
      5791        52  CHL1      H19A           -2.7812970533      -32.2823123349       13.7020962239  MEMB      52              0.0000000000
      5792        52  CHL1      H19B           -1.9070870284      -30.7858814657       14.2111886441  MEMB      52              0.0000000000
      5793        52  CHL1      H19C           -2.5372919805      -31.8577901110       15.4487427881  MEMB      52              0.0000000000
      5794        52  CHL1      C1             -3.7857072939      -29.2707393749       15.1591845493  MEMB      52              0.0000000000
      5795        52  CHL1      H1A            -2.8924937148      -28.7619733168       14.7305667072  MEMB      52              0.0000000000
      5796        52  CHL1      H1B            -4.6544769731      -28.6216205830       14.9429639473  MEMB      52              0.0000000000
      5797        52  CHL1      C2             -3.7000499596      -29.3662074931       16.6957296301  MEMB      52              0.0000000000
      5798        52  CHL1      H2A            -3.7798093378      -28.3390256426       17.1062640944  MEMB      52              0.0000000000
      5799        52  CHL1      H2B            -2.7307778631      -29.7989834194       16.9819368786  MEMB      52              0.0000000000
      5800        52  CHL1      C20            -4.0111036863      -30.7938074975        7.2408013161  MEMB      52              0.0000000000
      5801        52  CHL1      H20            -3.6532435160      -31.8470751587        7.1603774817  MEMB      52              0.0000000000
      5802        52  CHL1      C21            -2.7680218630      -29.8816191307        7.1439525194  MEMB      52              0.0000000000
      5803        52  CHL1      H21A           -2.6038689755      -29.5512179330        6.0935584441  MEMB      52              0.0000000000
      5804        52  CHL1      H21B           -1.8806933509      -30.4704593470        7.4568968936  MEMB      52              0.0000000000
      5805        52  CHL1      H21C           -2.8407049126      -28.9762640598        7.7764637059  MEMB      52              0.0000000000
      5806        52  CHL1      C22            -4.9304809817      -30.5683192868        6.0018849760  MEMB      52              0.0000000000
      5807        52  CHL1      H22A           -5.9514602329      -30.9155113043        6.2469428939  MEMB      52              0.0000000000
      5808        52  CHL1      H22B           -4.9860795780      -29.4731076188        5.8316038480  MEMB      52              0.0000000000
      5809        52  CHL1      C23            -4.5245835131      -31.2984524027        4.7026608807  MEMB      52              0.0000000000
      5810        52  CHL1      H23A           -3.4432496257      -31.1432002001        4.5191553582  MEMB      52              0.0000000000
      5811        52  CHL1      H23B           -4.6940398388      -32.3955974601        4.7909956844  MEMB      52              0.0000000000
      5812        52  CHL1      C24            -5.1863961369      -30.7345866166        3.4422022316  MEMB      52              0.0000000000
      5813        52  CHL1      H24A           -6.2943559700      -30.6902309104        3.5103214383  MEMB      52              0.0000000000
      5814        52  CHL1      H24B           -4.8661451082      -29.6686047929        3.3597009547  MEMB      52              0.0000000000
      5815        52  CHL1      C25            -4.8030553161      -31.5140803551        2.1721332542  MEMB      52              0.0000000000
      5816        52  CHL1      H25            -5.3259446554      -32.4926396850        2.0964859651  MEMB      52              0.0000000000
      5817        52  CHL1      C26            -5.4033366170      -30.7778662784        1.0194126817  MEMB      52              0.0000000000
      5818        52  CHL1      H26A           -6.4970648144      -30.7222498369        0.9030639589  MEMB      52              0.0000000000
      5819        52  CHL1      H26B           -4.9593002056      -29.7528769413        0.9740142838  MEMB      52              0.0000000000
      5820        52  CHL1      H26C           -5.0780494390      -31.4343088435        0.1868175979  MEMB      52              0.0000000000
      5821        52  CHL1      C27            -3.2787933631      -31.8307236009        2.0050720833  MEMB      52              0.0000000000
      5822        52  CHL1      H27A           -2.9717954050      -32.5087556397        2.8150400706  MEMB      52              0.0000000000
      5823        52  CHL1      H27B           -3.0306399199      -32.3527671423        1.0503734575  MEMB      52              0.0000000000
      5824        52  CHL1      H27C           -2.6357274763      -30.9206372607        2.0276824501  MEMB      52              0.0000000000
      5825        53  OSM       N             -25.5362453236       13.4846826313       19.8627943234  MEMB      53              0.0000000000
      5826        53  OSM       C15           -26.5947440886       13.8321831762       18.8628841248  MEMB      53              0.0000000000
      5827        53  OSM       H15A          -27.5860332439       13.7032539313       19.2959632431  MEMB      53              0.0000000000
      5828        53  OSM       H15B          -26.4987695436       13.2076112723       17.9897559946  MEMB      53              0.0000000000
      5829        53  OSM       H15C          -26.5363951078       14.8861963468       18.5893460029  MEMB      53              0.0000000000
      5830        53  OSM       C14           -25.7099136658       12.0416277093       20.2369690391  MEMB      53              0.0000000000
      5831        53  OSM       H14A          -25.6902386254       11.4025904613       19.3564136068  MEMB      53              0.0000000000
      5832        53  OSM       H14B          -26.6573384255       11.8592744964       20.7551809680  MEMB      53              0.0000000000
      5833        53  OSM       H14C          -24.9173758641       11.7117464859       20.8813110709  MEMB      53              0.0000000000
      5834        53  OSM       C13           -24.2272687248       13.7445104591       19.1856983863  MEMB      53              0.0000000000
      5835        53  OSM       H13A          -24.1579694696       14.8185278179       19.0017720070  MEMB      53              0.0000000000
      5836        53  OSM       H13B          -24.1481524943       13.2857739841       18.2119274358  MEMB      53              0.0000000000
      5837        53  OSM       H13C          -23.3526887011       13.5112255743       19.7820835074  MEMB      53              0.0000000000
      5838        53  OSM       C12           -25.5832351833       14.4696896407       21.0476314973  MEMB      53              0.0000000000
      5839        53  OSM       H12A          -25.5466340487       15.4918822075       20.6506299650  MEMB      53              0.0000000000
      5840        53  OSM       H12B          -24.6720957093       14.3634915736       21.6279225255  MEMB      53              0.0000000000
      5841        53  OSM       C11           -26.7988614009       14.4717684885       21.9948689024  MEMB      53              0.0000000000
      5842        53  OSM       H11A          -26.7011306513       15.3230332824       22.7200882780  MEMB      53              0.0000000000
      5843        53  OSM       H11B          -26.8266170584       13.5241979905       22.5854072848  MEMB      53              0.0000000000
      5844        53  OSM       P             -29.3478240483       14.5052252301       22.0267002072  MEMB      53              0.0000000000
      5845        53  OSM       O13           -29.9866639633       13.2417621316       21.6228869230  MEMB      53              0.0000000000
      5846        53  OSM       O14           -29.0878065152       14.7477918313       23.4570564454  MEMB      53              0.0000000000
      5847        53  OSM       O11           -30.2353762376       15.6879630020       21.4479627623  MEMB      53              0.0000000000
      5848        53  OSM       O12           -27.9865112824       14.6480355726       21.2236331979  MEMB      53              0.0000000000
      5849        53  OSM       C1S           -29.7526213244       16.6333608661       20.4815298998  MEMB      53              0.0000000000
      5850        53  OSM       H1S           -28.7396322603       17.0083374354       20.7645526152  MEMB      53              0.0000000000
      5851        53  OSM       H1T           -30.4163570512       17.5282059842       20.4842312561  MEMB      53              0.0000000000
      5852        53  OSM       NF            -29.0571014679       16.9697181496       18.1402358081  MEMB      53              0.0000000000
      5853        53  OSM       HNF           -29.6595247948       17.3415937814       17.4466412570  MEMB      53              0.0000000000
      5854        53  OSM       C2S           -29.6774554024       16.0555962623       19.0252104511  MEMB      53              0.0000000000
      5855        53  OSM       H2S           -29.0667738832       15.1275446341       19.0613935200  MEMB      53              0.0000000000
      5856        53  OSM       C3S           -31.0335699621       15.6555785250       18.4148771574  MEMB      53              0.0000000000
      5857        53  OSM       H3S           -31.7384875858       16.5176903284       18.4015003781  MEMB      53              0.0000000000
      5858        53  OSM       O3            -31.5401386943       14.5592078558       19.1365085593  MEMB      53              0.0000000000
      5859        53  OSM       HO3           -30.8422361354       14.3973561064       19.7901604345  MEMB      53              0.0000000000
      5860        53  OSM       C4S           -30.9139455648       15.1110561427       17.0021465011  MEMB      53              0.0000000000
      5861        53  OSM       H4S           -30.5958419407       14.0622643008       16.9704566996  MEMB      53              0.0000000000
      5862        53  OSM       C5S           -31.2108051821       15.7014511450       15.8276104747  MEMB      53              0.0000000000
      5863        53  OSM       H5S           -31.6391704721       16.7205989476       15.8323315566  MEMB      53              0.0000000000
      5864        53  OSM       C6S           -31.0498902292       15.0131793589       14.4798246584  MEMB      53              0.0000000000
      5865        53  OSM       H6S           -30.3781578340       15.6010383071       13.8169083271  MEMB      53              0.0000000000
      5866        53  OSM       H6T           -32.0505612982       15.0258643542       13.9955211653  MEMB      53              0.0000000000
      5867        53  OSM       C7S           -30.4309826522       13.5769494090       14.4801438223  MEMB      53              0.0000000000
      5868        53  OSM       H7S           -31.0244773274       12.8621339758       15.0889607112  MEMB      53              0.0000000000
      5869        53  OSM       H7T           -29.4369464683       13.6639973357       14.9836882722  MEMB      53              0.0000000000
      5870        53  OSM       C8S           -30.0521707962       12.9303366118       13.1176217672  MEMB      53              0.0000000000
      5871        53  OSM       H8S           -29.5462183264       11.9636107589       13.3475854470  MEMB      53              0.0000000000
      5872        53  OSM       H8T           -29.2658024136       13.5612179342       12.6542272067  MEMB      53              0.0000000000
      5873        53  OSM       C9S           -31.1209397996       12.7296653771       12.0257625086  MEMB      53              0.0000000000
      5874        53  OSM       H9S           -32.1025085266       13.1476387375       12.3289814881  MEMB      53              0.0000000000
      5875        53  OSM       H9T           -31.2829841612       11.6393066665       11.8362006060  MEMB      53              0.0000000000
      5876        53  OSM       C10S          -30.6926635285       13.3266830177       10.6652282506  MEMB      53              0.0000000000
      5877        53  OSM       H10S          -31.4507743426       13.0542148426        9.8972871330  MEMB      53              0.0000000000
      5878        53  OSM       H10T          -29.7338853091       12.8431947283       10.3604503720  MEMB      53              0.0000000000
      5879        53  OSM       C11S          -30.4420316900       14.8481309122       10.6380395198  MEMB      53              0.0000000000
      5880        53  OSM       H11S          -29.7158867520       15.1267072445       11.4314350870  MEMB      53              0.0000000000
      5881        53  OSM       H11T          -31.3559706045       15.4401108416       10.8372261869  MEMB      53              0.0000000000
      5882        53  OSM       C12S          -29.8537473964       15.2954472381        9.2949913432  MEMB      53              0.0000000000
      5883        53  OSM       H12S          -30.0760511658       14.5263227338        8.5203974255  MEMB      53              0.0000000000
      5884        53  OSM       H12T          -28.7476926451       15.3499803336        9.4124110906  MEMB      53              0.0000000000
      5885        53  OSM       C13S          -30.4107946955       16.6201119391        8.7590985856  MEMB      53              0.0000000000
      5886        53  OSM       H13S          -29.9056283765       17.4621048034        9.2808765360  MEMB      53              0.0000000000
      5887        53  OSM       H13T          -31.5021235830       16.7250171485        8.9644804228  MEMB      53              0.0000000000
      5888        53  OSM       C14S          -30.2570222250       16.7079190255        7.2323834173  MEMB      53              0.0000000000
      5889        53  OSM       H14S          -30.6828528433       17.6785813066        6.8980907645  MEMB      53              0.0000000000
      5890        53  OSM       H14T          -30.8615477160       15.9005404265        6.7538938014  MEMB      53              0.0000000000
      5891        53  OSM       C15S          -28.8171992152       16.6022648134        6.6997984862  MEMB      53              0.0000000000
      5892        53  OSM       H15S          -28.4213607512       15.5691702737        6.8527023906  MEMB      53              0.0000000000
      5893        53  OSM       H15T          -28.1716562026       17.3206923729        7.2461619627  MEMB      53              0.0000000000
      5894        53  OSM       C16S          -28.7919162694       16.9804888894        5.2152794680  MEMB      53              0.0000000000
      5895        53  OSM       H16S          -28.9981290590       18.0685896015        5.0937894622  MEMB      53              0.0000000000
      5896        53  OSM       H16T          -29.6254108319       16.4287268107        4.7269325334  MEMB      53              0.0000000000
      5897        53  OSM       C17S          -27.5126116470       16.6527002811        4.4496764948  MEMB      53              0.0000000000
      5898        53  OSM       H17S          -27.1862820335       15.6112501779        4.6603625646  MEMB      53              0.0000000000
      5899        53  OSM       H17T          -26.6863319616       17.3310204417        4.7707870729  MEMB      53              0.0000000000
      5900        53  OSM       C18S          -27.7893140884       16.6867476733        2.9488428215  MEMB      53              0.0000000000
      5901        53  OSM       H18S          -27.4409107427       15.7524289728        2.4696821664  MEMB      53              0.0000000000
      5902        53  OSM       H18T          -27.3107027066       17.5114065632        2.4533056616  MEMB      53              0.0000000000
      5903        53  OSM       H18U          -28.8630901835       16.8284346674        2.7258907933  MEMB      53              0.0000000000
      5904        53  OSM       C1F           -27.7599559676       17.1881490400       18.1015822703  MEMB      53              0.0000000000
      5905        53  OSM       OF            -27.0048907333       17.1839093312       19.0645178638  MEMB      53              0.0000000000
      5906        53  OSM       C2F           -27.3723142169       17.6194773164       16.7601693610  MEMB      53              0.0000000000
      5907        53  OSM       H2F           -26.9852939153       18.5816299720       16.9720401269  MEMB      53              0.0000000000
      5908        53  OSM       H2G           -28.2022736305       17.7578406737       16.0313112176  MEMB      53              0.0000000000
      5909        53  OSM       C3F           -25.9937850318       17.6756674843       16.2566701718  MEMB      53              0.0000000000
      5910        53  OSM       H3F           -25.2241995997       18.0400521809       17.0035444632  MEMB      53              0.0000000000
      5911        53  OSM       H3G           -26.0722461539       18.4173967898       15.4242173477  MEMB      53              0.0000000000
      5912        53  OSM       C4F           -25.8504562505       16.3365645246       15.7171841203  MEMB      53              0.0000000000
      5913        53  OSM       H4F           -25.7512858100       15.6852496533       16.6088978200  MEMB      53              0.0000000000
      5914        53  OSM       H4G           -24.9012415135       16.4319629245       15.1725646785  MEMB      53              0.0000000000
      5915        53  OSM       C5F           -27.0207039707       15.8608517998       14.8133108154  MEMB      53              0.0000000000
      5916        53  OSM       H5F           -28.0077840733       15.6961188181       15.2903288944  MEMB      53              0.0000000000
      5917        53  OSM       H5G           -26.6365105555       14.8814885320       14.4673375065  MEMB      53              0.0000000000
      5918        53  OSM       C6F           -27.3413563328       16.6587259746       13.5522774486  MEMB      53              0.0000000000
      5919        53  OSM       H6F           -27.6823041960       17.7141050917       13.7388843827  MEMB      53              0.0000000000
      5920        53  OSM       H6G           -28.0874401108       16.1180760969       12.9427031965  MEMB      53              0.0000000000
      5921        53  OSM       C7F           -26.1346349235       16.6306159625       12.6813071730  MEMB      53              0.0000000000
      5922        53  OSM       H7F           -25.4183807052       15.8113793527       12.7083897661  MEMB      53              0.0000000000
      5923        53  OSM       H7G           -25.5408009451       17.2442146114       13.3829735667  MEMB      53              0.0000000000
      5924        53  OSM       C8F           -26.4644681991       16.8422233066       11.1747961854  MEMB      53              0.0000000000
      5925        53  OSM       H8F           -26.8597711496       17.9276386512       11.1242184440  MEMB      53              0.0000000000
      5926        53  OSM       H8G           -27.2716109311       16.2772660193       10.7438225328  MEMB      53              0.0000000000
      5927        53  OSM       C9F           -25.2343394249       16.5026098196       10.3150886137  MEMB      53              0.0000000000
      5928        53  OSM       H9F           -24.3210212002       16.6798242826       10.8652142150  MEMB      53              0.0000000000
      5929        53  OSM       C10F          -24.6445851516       15.8851141500        9.3950567460  MEMB      53              0.0000000000
      5930        53  OSM       H10F          -23.8864082194       16.4328409011        8.8144948202  MEMB      53              0.0000000000
      5931        53  OSM       C11F          -25.3812393106       14.9941640477        8.7191329605  MEMB      53              0.0000000000
      5932        53  OSM       H11F          -26.4145193956       14.9881574317        9.1196242259  MEMB      53              0.0000000000
      5933        53  OSM       H11G          -24.7269374683       14.2778009117        9.2020575218  MEMB      53              0.0000000000
      5934        53  OSM       C12F          -25.2290827045       15.4163939900        7.2975418710  MEMB      53              0.0000000000
      5935        53  OSM       H12F          -25.6769242721       16.4224541207        7.0981224699  MEMB      53              0.0000000000
      5936        53  OSM       H12G          -25.8380738083       14.5744903276        6.9316328894  MEMB      53              0.0000000000
      5937        53  OSM       C13F          -23.8535354208       15.3951600787        6.6283913205  MEMB      53              0.0000000000
      5938        53  OSM       H13F          -23.1489573792       14.7023981455        7.0951591941  MEMB      53              0.0000000000
      5939        53  OSM       H13G          -23.3336937946       16.3571330517        6.7631566982  MEMB      53              0.0000000000
      5940        53  OSM       C14F          -23.9531725512       15.1226017352        5.1348107791  MEMB      53              0.0000000000
      5941        53  OSM       H14F          -22.9369886591       15.3654046017        4.7439400676  MEMB      53              0.0000000000
      5942        53  OSM       H14G          -24.6916924522       15.8226311251        4.7147708880  MEMB      53              0.0000000000
      5943        53  OSM       C15F          -24.3914389983       13.6822721050        4.8207867924  MEMB      53              0.0000000000
      5944        53  OSM       H15F          -25.3053006387       13.3445768303        5.3159094129  MEMB      53              0.0000000000
      5945        53  OSM       H15G          -23.6045083914       13.1055264949        5.2775846771  MEMB      53              0.0000000000
      5946        53  OSM       C16F          -24.2726779238       13.1574912698        3.4111094575  MEMB      53              0.0000000000
      5947        53  OSM       H16F          -24.2246593625       12.0444462918        3.3507986769  MEMB      53              0.0000000000
      5948        53  OSM       H16G          -23.2959537634       13.5281370040        3.2096630966  MEMB      53              0.0000000000
      5949        53  OSM       C17F          -25.2392950044       13.7278550101        2.4192360377  MEMB      53              0.0000000000
      5950        53  OSM       H17F          -25.1429997221       14.8337640657        2.3629201761  MEMB      53              0.0000000000
      5951        53  OSM       H17G          -26.2247786365       13.4904815237        2.8670913618  MEMB      53              0.0000000000
      5952        53  OSM       C18F          -25.0735636193       13.1222740569        1.0272116432  MEMB      53              0.0000000000
      5953        53  OSM       H18F          -25.8835480092       13.5084424365        0.3721787301  MEMB      53              0.0000000000
      5954        53  OSM       H18G          -25.0903310594       12.0096979342        1.0789565848  MEMB      53              0.0000000000
      5955        53  OSM       H18H          -24.0960026513       13.4005689747        0.5793538792  MEMB      53              0.0000000000
      5956        54  OSM       N              13.3900563995      -27.0913867379       22.3003203146  MEMB      54              0.0000000000
      5957        54  OSM       C15            14.4954813196      -27.3874752694       23.2587447593  MEMB      54              0.0000000000
      5958        54  OSM       H15A           14.7351369504      -26.4992691322       23.8304629410  MEMB      54              0.0000000000
      5959        54  OSM       H15B           15.4345399923      -27.5844985142       22.7180619816  MEMB      54              0.0000000000
      5960        54  OSM       H15C           14.2530002405      -28.1745585508       23.9483495575  MEMB      54              0.0000000000
      5961        54  OSM       C14            13.0803498012      -28.2940869979       21.4571292520  MEMB      54              0.0000000000
      5962        54  OSM       H14A           12.5094791728      -28.0272702588       20.5801822153  MEMB      54              0.0000000000
      5963        54  OSM       H14B           12.5661139639      -29.0668944369       22.0158407009  MEMB      54              0.0000000000
      5964        54  OSM       H14C           13.9971897961      -28.7523076809       21.0554869307  MEMB      54              0.0000000000
      5965        54  OSM       C13            12.1593279623      -26.6715074244       23.0344027916  MEMB      54              0.0000000000
      5966        54  OSM       H13A           11.3471841090      -26.4340385499       22.3555583440  MEMB      54              0.0000000000
      5967        54  OSM       H13B           12.3834021157      -25.7666900360       23.5972624289  MEMB      54              0.0000000000
      5968        54  OSM       H13C           11.7994066205      -27.4407054410       23.6834067052  MEMB      54              0.0000000000
      5969        54  OSM       C12            13.8770399363      -25.8875625006       21.4839652684  MEMB      54              0.0000000000
      5970        54  OSM       H12A           14.4112207998      -25.2181243578       22.1659380943  MEMB      54              0.0000000000
      5971        54  OSM       H12B           13.0116369801      -25.3389563429       21.1412347008  MEMB      54              0.0000000000
      5972        54  OSM       C11            14.8417886778      -26.0784732058       20.2818947185  MEMB      54              0.0000000000
      5973        54  OSM       H11A           15.0896844355      -25.0724252864       19.8501359055  MEMB      54              0.0000000000
      5974        54  OSM       H11B           14.2819306410      -26.6488742452       19.5144375313  MEMB      54              0.0000000000
      5975        54  OSM       P              16.7098656015      -27.9279234748       19.8874389767  MEMB      54              0.0000000000
      5976        54  OSM       O13            18.0654773205      -28.0762840964       20.4219082048  MEMB      54              0.0000000000
      5977        54  OSM       O14            15.7546719537      -29.0424669320       20.0878097500  MEMB      54              0.0000000000
      5978        54  OSM       O11            16.6836949212      -27.5380198567       18.3343550376  MEMB      54              0.0000000000
      5979        54  OSM       O12            16.0408007951      -26.7289726139       20.6716768285  MEMB      54              0.0000000000
      5980        54  OSM       C1S            17.2124944408      -28.5400376680       17.4240867881  MEMB      54              0.0000000000
      5981        54  OSM       H1S            17.8141801203      -29.3327629808       17.9389632928  MEMB      54              0.0000000000
      5982        54  OSM       H1T            17.9264958138      -28.0549063522       16.7202251283  MEMB      54              0.0000000000
      5983        54  OSM       NF             16.8001774752      -30.0046262299       15.4967852614  MEMB      54              0.0000000000
      5984        54  OSM       HNF            16.4917258462      -29.7971862405       14.5832554891  MEMB      54              0.0000000000
      5985        54  OSM       C2S            16.1416762494      -29.3173776964       16.5822656092  MEMB      54              0.0000000000
      5986        54  OSM       H2S            15.6388585224      -30.0884004521       17.2107882570  MEMB      54              0.0000000000
      5987        54  OSM       C3S            15.0232006824      -28.3998795412       16.0354349281  MEMB      54              0.0000000000
      5988        54  OSM       H3S            15.4744901715      -27.6811569700       15.3094003078  MEMB      54              0.0000000000
      5989        54  OSM       O3             14.3405823253      -27.6615361852       17.0374118667  MEMB      54              0.0000000000
      5990        54  OSM       HO3            14.9479087727      -27.7437236333       17.7926310186  MEMB      54              0.0000000000
      5991        54  OSM       C4S            14.0085804875      -29.2237937931       15.2646073155  MEMB      54              0.0000000000
      5992        54  OSM       H4S            13.5697506805      -30.0841897537       15.7952359308  MEMB      54              0.0000000000
      5993        54  OSM       C5S            13.6569846593      -28.9432222094       13.9925955867  MEMB      54              0.0000000000
      5994        54  OSM       H5S            14.1216173402      -28.0708526209       13.5056482587  MEMB      54              0.0000000000
      5995        54  OSM       C6S            12.6747572279      -29.6625583021       13.1101372377  MEMB      54              0.0000000000
      5996        54  OSM       H6S            11.7364495521      -29.0653398666       13.0773012712  MEMB      54              0.0000000000
      5997        54  OSM       H6T            12.3686237641      -30.6664269874       13.4801976373  MEMB      54              0.0000000000
      5998        54  OSM       C7S            13.2049038552      -29.7402991665       11.6628293722  MEMB      54              0.0000000000
      5999        54  OSM       H7S            13.4496471357      -28.7195742540       11.2902443309  MEMB      54              0.0000000000
      6000        54  OSM       H7T            12.3812926682      -30.1492237392       11.0355264484  MEMB      54              0.0000000000
      6001        54  OSM       C8S            14.4310781953      -30.6390925485       11.4304714688  MEMB      54              0.0000000000
      6002        54  OSM       H8S            14.2759387218      -31.5462953051       12.0586032554  MEMB      54              0.0000000000
      6003        54  OSM       H8T            15.3567269340      -30.1217745288       11.7646899061  MEMB      54              0.0000000000
      6004        54  OSM       C9S            14.5873807886      -30.9857423189        9.9323700723  MEMB      54              0.0000000000
      6005        54  OSM       H9S            13.6335871884      -31.4130286380        9.5636269585  MEMB      54              0.0000000000
      6006        54  OSM       H9T            15.3385294979      -31.7632109962        9.7500652492  MEMB      54              0.0000000000
      6007        54  OSM       C10S           15.0452265272      -29.7930391238        9.0744767001  MEMB      54              0.0000000000
      6008        54  OSM       H10S           16.1022344375      -29.5732140110        9.3339118834  MEMB      54              0.0000000000
      6009        54  OSM       H10T           14.4282444548      -28.9048996678        9.3244267101  MEMB      54              0.0000000000
      6010        54  OSM       C11S           14.9991100369      -30.0361951370        7.5580692075  MEMB      54              0.0000000000
      6011        54  OSM       H11S           13.9693074933      -30.3299769658        7.2612800363  MEMB      54              0.0000000000
      6012        54  OSM       H11T           15.6821473508      -30.8723714581        7.2870295748  MEMB      54              0.0000000000
      6013        54  OSM       C12S           15.4960055283      -28.8339287696        6.7435750846  MEMB      54              0.0000000000
      6014        54  OSM       H12S           16.4888509166      -28.5318478236        7.1352897365  MEMB      54              0.0000000000
      6015        54  OSM       H12T           14.7947447902      -27.9717874019        6.8143240998  MEMB      54              0.0000000000
      6016        54  OSM       C13S           15.7402784940      -29.1955962751        5.2830226579  MEMB      54              0.0000000000
      6017        54  OSM       H13S           16.0990693873      -30.2446071438        5.2300390731  MEMB      54              0.0000000000
      6018        54  OSM       H13T           16.5291104293      -28.5338231224        4.8634144928  MEMB      54              0.0000000000
      6019        54  OSM       C14S           14.4628289502      -29.0749020421        4.4797037266  MEMB      54              0.0000000000
      6020        54  OSM       H14S           14.0926381445      -28.0259525707        4.5602004374  MEMB      54              0.0000000000
      6021        54  OSM       H14T           13.7048785171      -29.7769279962        4.8980793551  MEMB      54              0.0000000000
      6022        54  OSM       C15S           14.6447379338      -29.4576987086        3.0304333226  MEMB      54              0.0000000000
      6023        54  OSM       H15S           14.9399176777      -30.5259619922        2.9363903089  MEMB      54              0.0000000000
      6024        54  OSM       H15T           15.4312818433      -28.8354268109        2.5505098295  MEMB      54              0.0000000000
      6025        54  OSM       C16S           13.3424814666      -29.2835113962        2.3074590178  MEMB      54              0.0000000000
      6026        54  OSM       H16S           13.0296070878      -28.2030311545        2.3683339376  MEMB      54              0.0000000000
      6027        54  OSM       H16T           12.5280501003      -29.9183345543        2.7240710431  MEMB      54              0.0000000000
      6028        54  OSM       C17S           13.5450814948      -29.6805711235        0.8775631622  MEMB      54              0.0000000000
      6029        54  OSM       H17S           13.9635536968      -30.6157676848        0.5689953454  MEMB      54              0.0000000000
      6030        54  OSM       H17T           14.4427896750      -29.1105401077        0.5814466171  MEMB      54              0.0000000000
      6031        54  OSM       C18S           12.2154304450      -29.4878480172        0.2069458538  MEMB      54              0.0000000000
      6032        54  OSM       H18S           11.4876192040      -30.2334468608       -0.1094748659  MEMB      54              0.0000000000
      6033        54  OSM       H18T           12.3141730680      -29.1759833652       -0.8179242303  MEMB      54              0.0000000000
      6034        54  OSM       H18U           11.7270830269      -28.7354740496        0.8550728720  MEMB      54              0.0000000000
      6035        54  OSM       C1F            17.7949599574      -30.8628726094       15.6868609182  MEMB      54              0.0000000000
      6036        54  OSM       OF             18.0083092911      -31.4229038199       16.7446831396  MEMB      54              0.0000000000
      6037        54  OSM       C2F            18.5638011281      -31.2647380707       14.4817345353  MEMB      54              0.0000000000
      6038        54  OSM       H2F            18.1097214376      -32.2105840958       14.3207920795  MEMB      54              0.0000000000
      6039        54  OSM       H2G            19.5741129414      -31.6369985369       14.6828205877  MEMB      54              0.0000000000
      6040        54  OSM       C3F            18.4833907254      -30.3592569567       13.2356750037  MEMB      54              0.0000000000
      6041        54  OSM       H3F            18.7379983591      -29.3178242308       13.5229030856  MEMB      54              0.0000000000
      6042        54  OSM       H3G            17.4766851392      -30.3522252803       12.7507394748  MEMB      54              0.0000000000
      6043        54  OSM       C4F            19.4687239459      -30.7829341221       12.1536728326  MEMB      54              0.0000000000
      6044        54  OSM       H4F            19.5620720484      -31.8937027292       12.1426414479  MEMB      54              0.0000000000
      6045        54  OSM       H4G            20.4953441609      -30.4370265274       12.4300548108  MEMB      54              0.0000000000
      6046        54  OSM       C5F            18.9399754711      -30.2725910228       10.7892125900  MEMB      54              0.0000000000
      6047        54  OSM       H5F            17.9685487566      -30.6103400625       10.4709827224  MEMB      54              0.0000000000
      6048        54  OSM       H5G            19.6510661168      -30.6820812466       10.0556192691  MEMB      54              0.0000000000
      6049        54  OSM       C6F            18.6628427525      -28.7516485309       10.6179591239  MEMB      54              0.0000000000
      6050        54  OSM       H6F            19.6333258237      -28.6528551314       11.1650104855  MEMB      54              0.0000000000
      6051        54  OSM       H6G            18.0963629701      -28.1416719836       11.2870675972  MEMB      54              0.0000000000
      6052        54  OSM       C7F            18.4430378577      -28.2666595460        9.0651517796  MEMB      54              0.0000000000
      6053        54  OSM       H7F            17.7984446511      -28.9026714029        8.5454197519  MEMB      54              0.0000000000
      6054        54  OSM       H7G            19.2295082012      -28.6063726093        8.3549352417  MEMB      54              0.0000000000
      6055        54  OSM       C8F            18.4590856946      -26.7545090849        8.6540366264  MEMB      54              0.0000000000
      6056        54  OSM       H8F            18.9580230750      -26.4230658426        7.6721445444  MEMB      54              0.0000000000
      6057        54  OSM       H8G            19.0993405052      -26.2017054833        9.3544648986  MEMB      54              0.0000000000
      6058        54  OSM       C9F            17.8263736786      -25.8701496807        9.5584342542  MEMB      54              0.0000000000
      6059        54  OSM       H9F            17.9351119484      -26.0549109352       10.6728673161  MEMB      54              0.0000000000
      6060        54  OSM       C10F           17.4552083510      -24.7699717855        8.9573512666  MEMB      54              0.0000000000
      6061        54  OSM       H10F           16.6123080542      -24.4509968695        9.4862767755  MEMB      54              0.0000000000
      6062        54  OSM       C11F           17.6675345614      -24.4990166458        7.4821959875  MEMB      54              0.0000000000
      6063        54  OSM       H11F           18.7595412261      -24.4237644934        7.3005674584  MEMB      54              0.0000000000
      6064        54  OSM       H11G           17.3676622297      -23.4662022865        7.3371076720  MEMB      54              0.0000000000
      6065        54  OSM       C12F           16.9302552279      -25.4131301153        6.4268291594  MEMB      54              0.0000000000
      6066        54  OSM       H12F           15.8517799065      -25.2723822989        6.5948189782  MEMB      54              0.0000000000
      6067        54  OSM       H12G           17.1876013518      -26.4961040029        6.4771382112  MEMB      54              0.0000000000
      6068        54  OSM       C13F           17.0396805605      -25.0059210988        4.9734823162  MEMB      54              0.0000000000
      6069        54  OSM       H13F           17.9303833933      -25.2631897675        4.4816805137  MEMB      54              0.0000000000
      6070        54  OSM       H13G           16.7147162412      -24.0034633845        4.7939868018  MEMB      54              0.0000000000
      6071        54  OSM       C14F           16.3699996897      -25.7587023737        3.9041748878  MEMB      54              0.0000000000
      6072        54  OSM       H14F           15.3102995376      -25.6089788152        4.1425124197  MEMB      54              0.0000000000
      6073        54  OSM       H14G           16.7261303723      -26.8028202836        3.9180028980  MEMB      54              0.0000000000
      6074        54  OSM       C15F           16.6743965144      -25.1795657631        2.5516441016  MEMB      54              0.0000000000
      6075        54  OSM       H15F           17.7149750800      -25.1561164130        2.1521129271  MEMB      54              0.0000000000
      6076        54  OSM       H15G           16.3563751018      -24.1581447955        2.4656976301  MEMB      54              0.0000000000
      6077        54  OSM       C16F           15.8157950376      -25.8801893517        1.6211120847  MEMB      54              0.0000000000
      6078        54  OSM       H16F           14.7217626719      -25.7620195551        1.8320417799  MEMB      54              0.0000000000
      6079        54  OSM       H16G           16.0835511947      -26.9672959694        1.6738928135  MEMB      54              0.0000000000
      6080        54  OSM       C17F           16.1969986485      -25.2632175645        0.3204012047  MEMB      54              0.0000000000
      6081        54  OSM       H17F           17.2756039618      -25.2199137381        0.1737386434  MEMB      54              0.0000000000
      6082        54  OSM       H17G           15.6806073595      -24.3151469774        0.0553568159  MEMB      54              0.0000000000
      6083        54  OSM       C18F           15.7627835374      -26.2502163850       -0.5314168489  MEMB      54              0.0000000000
      6084        54  OSM       H18F           16.0338817390      -27.3075924423       -0.3993426768  MEMB      54              0.0000000000
      6085        54  OSM       H18G           15.7876300577      -26.0262588600       -1.6399868232  MEMB      54              0.0000000000
      6086        54  OSM       H18H           14.7644928176      -26.3801829771       -0.0916342843  MEMB      54              0.0000000000
      6087        55  OSM       N             -29.7633262329       -6.7172081933       21.7163124232  MEMB      55              0.0000000000
      6088        55  OSM       C15           -29.4827137836       -7.0142203577       20.2906507543  MEMB      55              0.0000000000
      6089        55  OSM       H15A          -29.9939511465       -7.9025728062       19.9409077981  MEMB      55              0.0000000000
      6090        55  OSM       H15B          -28.4222174313       -7.1295549087       20.1251610883  MEMB      55              0.0000000000
      6091        55  OSM       H15C          -29.8067159180       -6.1457815288       19.7051053656  MEMB      55              0.0000000000
      6092        55  OSM       C14           -29.3307335509       -7.8593983891       22.5568889541  MEMB      55              0.0000000000
      6093        55  OSM       H14A          -29.8724477609       -8.7511475448       22.2623490187  MEMB      55              0.0000000000
      6094        55  OSM       H14B          -29.5469905185       -7.6238557144       23.5959311047  MEMB      55              0.0000000000
      6095        55  OSM       H14C          -28.2660705865       -8.0237330903       22.4747572465  MEMB      55              0.0000000000
      6096        55  OSM       C13           -28.9532001207       -5.5316653625       22.1315142688  MEMB      55              0.0000000000
      6097        55  OSM       H13A          -29.1307017809       -4.6993821132       21.4461414440  MEMB      55              0.0000000000
      6098        55  OSM       H13B          -27.9120788889       -5.7855913779       22.1240970485  MEMB      55              0.0000000000
      6099        55  OSM       H13C          -29.2293520816       -5.2013746553       23.1286552334  MEMB      55              0.0000000000
      6100        55  OSM       C12           -31.2520790880       -6.4359616591       21.9142394167  MEMB      55              0.0000000000
      6101        55  OSM       H12A          -31.4011497967       -6.1733657036       22.9547868163  MEMB      55              0.0000000000
      6102        55  OSM       H12B          -31.7616585245       -7.3722504564       21.7247282683  MEMB      55              0.0000000000
      6103        55  OSM       C11           -31.9853038968       -5.3462530929       21.0544613245  MEMB      55              0.0000000000
      6104        55  OSM       H11A          -33.0175206490       -5.2531373813       21.4515190226  MEMB      55              0.0000000000
      6105        55  OSM       H11B          -32.0533452808       -5.7182294794       20.0093695139  MEMB      55              0.0000000000
      6106        55  OSM       P             -31.7647088949       -2.7700059433       20.2667894222  MEMB      55              0.0000000000
      6107        55  OSM       O13           -33.2341387484       -2.6614736302       20.2334944129  MEMB      55              0.0000000000
      6108        55  OSM       O14           -30.9680420938       -1.6350474227       20.7880893921  MEMB      55              0.0000000000
      6109        55  OSM       O11           -31.2447353138       -3.1280672270       18.8173514858  MEMB      55              0.0000000000
      6110        55  OSM       O12           -31.3591406931       -4.0743786579       21.1092974924  MEMB      55              0.0000000000
      6111        55  OSM       C1S           -32.0092418247       -3.6862654114       17.7513400763  MEMB      55              0.0000000000
      6112        55  OSM       H1S           -32.6265371795       -2.9033204321       17.2454049291  MEMB      55              0.0000000000
      6113        55  OSM       H1T           -32.6820762202       -4.5067577128       18.0884039289  MEMB      55              0.0000000000
      6114        55  OSM       NF            -31.8350694190       -4.9255429053       15.6518815310  MEMB      55              0.0000000000
      6115        55  OSM       HNF           -31.5179978609       -5.8275593121       15.4049226147  MEMB      55              0.0000000000
      6116        55  OSM       C2S           -31.0690984321       -4.2816220144       16.6757197390  MEMB      55              0.0000000000
      6117        55  OSM       H2S           -30.5172187406       -3.4487862913       16.1799447308  MEMB      55              0.0000000000
      6118        55  OSM       C3S           -30.0457006097       -5.2822799840       17.2615483909  MEMB      55              0.0000000000
      6119        55  OSM       H3S           -30.5803124160       -6.1499764842       17.7286792112  MEMB      55              0.0000000000
      6120        55  OSM       O3            -29.1844406320       -4.7111511031       18.2136686340  MEMB      55              0.0000000000
      6121        55  OSM       HO3           -29.5120560419       -3.8016802242       18.2055291986  MEMB      55              0.0000000000
      6122        55  OSM       C4S           -29.1809866462       -5.7113716517       16.1458681528  MEMB      55              0.0000000000
      6123        55  OSM       H4S           -28.2501685358       -5.1465402834       15.9789160130  MEMB      55              0.0000000000
      6124        55  OSM       C5S           -29.3465676073       -6.7885044034       15.4070248910  MEMB      55              0.0000000000
      6125        55  OSM       H5S           -30.0001742474       -7.6220157837       15.7287103660  MEMB      55              0.0000000000
      6126        55  OSM       C6S           -28.3369414945       -6.9858262641       14.3512432790  MEMB      55              0.0000000000
      6127        55  OSM       H6S           -28.6208477791       -7.8416539244       13.6716733570  MEMB      55              0.0000000000
      6128        55  OSM       H6T           -27.5110579134       -7.3083299355       15.0243741057  MEMB      55              0.0000000000
      6129        55  OSM       C7S           -27.5435589992       -5.9531688646       13.5316893174  MEMB      55              0.0000000000
      6130        55  OSM       H7S           -26.5527997770       -6.1358148987       13.0638252243  MEMB      55              0.0000000000
      6131        55  OSM       H7T           -27.0464364818       -5.2415786201       14.1904769335  MEMB      55              0.0000000000
      6132        55  OSM       C8S           -28.1454152078       -5.7511865774       12.1890471381  MEMB      55              0.0000000000
      6133        55  OSM       H8S           -29.1417863798       -6.2267229568       12.1087186639  MEMB      55              0.0000000000
      6134        55  OSM       H8T           -27.5244249224       -6.2290821367       11.3799653172  MEMB      55              0.0000000000
      6135        55  OSM       C9S           -28.1533134216       -4.2644179494       12.1280561302  MEMB      55              0.0000000000
      6136        55  OSM       H9S           -27.0884040979       -3.9699733429       12.0694862699  MEMB      55              0.0000000000
      6137        55  OSM       H9T           -28.5810312706       -3.8996954899       13.0945771036  MEMB      55              0.0000000000
      6138        55  OSM       C10S          -28.9787612223       -3.7640995053       10.9747270675  MEMB      55              0.0000000000
      6139        55  OSM       H10S          -28.7998718302       -2.6717536390       10.8879545913  MEMB      55              0.0000000000
      6140        55  OSM       H10T          -30.0354045199       -3.9704247436       11.2712283722  MEMB      55              0.0000000000
      6141        55  OSM       C11S          -28.5956284668       -4.4686235879        9.6690515930  MEMB      55              0.0000000000
      6142        55  OSM       H11S          -28.6783649119       -5.5717557271        9.7914359001  MEMB      55              0.0000000000
      6143        55  OSM       H11T          -27.5293589923       -4.2262587345        9.4609289266  MEMB      55              0.0000000000
      6144        55  OSM       C12S          -29.4405973744       -4.1024161399        8.4453033311  MEMB      55              0.0000000000
      6145        55  OSM       H12S          -29.4219392550       -3.0043556758        8.2917472341  MEMB      55              0.0000000000
      6146        55  OSM       H12T          -30.4960892400       -4.4021121200        8.6364171290  MEMB      55              0.0000000000
      6147        55  OSM       C13S          -28.9025534702       -4.8059308966        7.1878657483  MEMB      55              0.0000000000
      6148        55  OSM       H13S          -29.0330942855       -5.9064153687        7.3099895280  MEMB      55              0.0000000000
      6149        55  OSM       H13T          -27.8096938784       -4.6133751101        7.0930247612  MEMB      55              0.0000000000
      6150        55  OSM       C14S          -29.5299166057       -4.3351046000        5.8751659402  MEMB      55              0.0000000000
      6151        55  OSM       H14S          -29.0341879644       -3.3879705201        5.5550174569  MEMB      55              0.0000000000
      6152        55  OSM       H14T          -30.6084375969       -4.0965740439        6.0086352056  MEMB      55              0.0000000000
      6153        55  OSM       C15S          -29.3345752515       -5.3683498060        4.7636047660  MEMB      55              0.0000000000
      6154        55  OSM       H15S          -30.0961310466       -6.1878089377        4.8617896062  MEMB      55              0.0000000000
      6155        55  OSM       H15T          -28.3316549214       -5.8304820072        4.8062047764  MEMB      55              0.0000000000
      6156        55  OSM       C16S          -29.5300734762       -4.6964999956        3.4205452925  MEMB      55              0.0000000000
      6157        55  OSM       H16S          -29.3259682447       -3.6201754352        3.3631632128  MEMB      55              0.0000000000
      6158        55  OSM       H16T          -30.6332289690       -4.7094966951        3.5174207668  MEMB      55              0.0000000000
      6159        55  OSM       C17S          -28.8366721789       -5.3773781206        2.2216180982  MEMB      55              0.0000000000
      6160        55  OSM       H17S          -27.7820604553       -5.0977631519        2.1352565931  MEMB      55              0.0000000000
      6161        55  OSM       H17T          -29.1370620261       -4.9997313142        1.1990531404  MEMB      55              0.0000000000
      6162        55  OSM       C18S          -29.0449471463       -6.8953611283        2.2696325112  MEMB      55              0.0000000000
      6163        55  OSM       H18S          -28.5836252695       -7.3816251186        3.1319856632  MEMB      55              0.0000000000
      6164        55  OSM       H18T          -28.4682319587       -7.1546990842        1.4325923934  MEMB      55              0.0000000000
      6165        55  OSM       H18U          -30.0530308634       -7.3363236026        2.0627334325  MEMB      55              0.0000000000
      6166        55  OSM       C1F           -32.7420863445       -4.3545912053       14.8930935177  MEMB      55              0.0000000000
      6167        55  OSM       OF            -32.9340286763       -3.1579105552       14.8860267217  MEMB      55              0.0000000000
      6168        55  OSM       C2F           -33.4415643458       -5.3095624459       14.0173528539  MEMB      55              0.0000000000
      6169        55  OSM       H2F           -34.5162629281       -5.0622361384       13.9627426929  MEMB      55              0.0000000000
      6170        55  OSM       H2G           -33.3599159810       -6.3070892002       14.5128224618  MEMB      55              0.0000000000
      6171        55  OSM       C3F           -32.7443861541       -5.2509378297       12.6424537063  MEMB      55              0.0000000000
      6172        55  OSM       H3F           -31.6600791959       -5.5015313275       12.7597749234  MEMB      55              0.0000000000
      6173        55  OSM       H3G           -32.8506852579       -4.2531702577       12.1682420798  MEMB      55              0.0000000000
      6174        55  OSM       C4F           -33.2827930512       -6.2641442030       11.6587667756  MEMB      55              0.0000000000
      6175        55  OSM       H4F           -34.3593154797       -6.0831127121       11.4287616193  MEMB      55              0.0000000000
      6176        55  OSM       H4G           -33.1926342442       -7.1662362999       12.2993419625  MEMB      55              0.0000000000
      6177        55  OSM       C5F           -32.4449864306       -6.3697188408       10.3583221272  MEMB      55              0.0000000000
      6178        55  OSM       H5F           -31.4091700815       -6.7008152766       10.5960590373  MEMB      55              0.0000000000
      6179        55  OSM       H5G           -32.4073237641       -5.3990952036        9.8341443351  MEMB      55              0.0000000000
      6180        55  OSM       C6F           -33.0839617514       -7.2546413287        9.2962379689  MEMB      55              0.0000000000
      6181        55  OSM       H6F           -33.9771795065       -6.8031189395        8.8403302626  MEMB      55              0.0000000000
      6182        55  OSM       H6G           -33.5206357945       -7.9820372503        9.8884869946  MEMB      55              0.0000000000
      6183        55  OSM       C7F           -32.1913688846       -7.9975831469        8.3085699441  MEMB      55              0.0000000000
      6184        55  OSM       H7F           -31.4664569741       -8.6909967926        8.7927375392  MEMB      55              0.0000000000
      6185        55  OSM       H7G           -31.6560458189       -7.2463666853        7.7039424946  MEMB      55              0.0000000000
      6186        55  OSM       C8F           -32.9485355477       -8.8238737759        7.3046849576  MEMB      55              0.0000000000
      6187        55  OSM       H8F           -33.7246217292       -9.4285946538        7.6684128175  MEMB      55              0.0000000000
      6188        55  OSM       H8G           -32.2782742842       -9.5173833379        6.7737014037  MEMB      55              0.0000000000
      6189        55  OSM       C9F           -33.8197144828       -8.0979540533        6.4172928692  MEMB      55              0.0000000000
      6190        55  OSM       H9F           -34.7246386322       -7.6211377603        6.8600562508  MEMB      55              0.0000000000
      6191        55  OSM       C10F          -33.5315036821       -7.9838217768        5.1365978613  MEMB      55              0.0000000000
      6192        55  OSM       H10F          -34.3998661594       -8.2085433947        4.5272812018  MEMB      55              0.0000000000
      6193        55  OSM       C11F          -32.4348409043       -8.4241844297        4.2698761866  MEMB      55              0.0000000000
      6194        55  OSM       H11F          -31.8313776534       -9.1672315503        4.7894711807  MEMB      55              0.0000000000
      6195        55  OSM       H11G          -31.8965673599       -7.4767209361        4.0773999048  MEMB      55              0.0000000000
      6196        55  OSM       C12F          -32.8084352275       -8.8878471882        2.8650435288  MEMB      55              0.0000000000
      6197        55  OSM       H12F          -33.5549692028       -9.6633646403        2.8511111048  MEMB      55              0.0000000000
      6198        55  OSM       H12G          -31.9696029400       -9.3129891274        2.3028092775  MEMB      55              0.0000000000
      6199        55  OSM       C13F          -33.3236486804       -7.7388269782        2.0457004174  MEMB      55              0.0000000000
      6200        55  OSM       H13F          -32.9130574348       -6.8232267818        2.1266239947  MEMB      55              0.0000000000
      6201        55  OSM       H13G          -34.0848234102       -7.3009856185        2.6367226903  MEMB      55              0.0000000000
      6202        55  OSM       C14F          -33.2699554981       -7.8973189887        0.5347422827  MEMB      55              0.0000000000
      6203        55  OSM       H14F          -33.2768474933       -8.9859735470        0.5899979838  MEMB      55              0.0000000000
      6204        55  OSM       H14G          -32.4996128023       -8.4067987545       -0.0052365836  MEMB      55              0.0000000000
      6205        55  OSM       C15F          -34.0793045902       -6.7212025415       -0.4293977294  MEMB      55              0.0000000000
      6206        55  OSM       H15F          -33.4432763133       -6.2352950294       -0.5259466109  MEMB      55              0.0000000000
      6207        55  OSM       H15G          -34.5368392658       -6.1193711829        0.1082184255  MEMB      55              0.0000000000
      6208        55  OSM       C16F          -34.8823101469       -6.9708078000       -2.3123779934  MEMB      55              0.0000000000
      6209        55  OSM       H16F          -36.5260020065       -8.7487421368       -1.8251565256  MEMB      55              0.0000000000
      6210        55  OSM       H16G          -34.0501534656       -7.4152930100       -2.9124556987  MEMB      55              0.0000000000
      6211        55  OSM       C17F          -35.5674375152       -5.3353869523       -2.7236899500  MEMB      55              0.0000000000
      6212        55  OSM       H17F          -35.4096250485       -6.2745008515       -3.0029635114  MEMB      55              0.0000000000
      6213        55  OSM       H17G          -35.0365862124       -4.8956598088       -1.9013078883  MEMB      55              0.0000000000
      6214        55  OSM       C18F          -37.2107736723       -4.7181270029       -2.7417373815  MEMB      55              0.0000000000
      6215        55  OSM       H18F          -38.2195978224       -5.2337519912       -2.9530101955  MEMB      55              0.0000000000
      6216        55  OSM       H18G          -38.0206184695       -4.3999917697       -2.1140753489  MEMB      55              0.0000000000
      6217        55  OSM       H18H          -37.2844230414       -4.9394432867       -1.6701633785  MEMB      55              0.0000000000
      6218        56  OSM       N              27.2619929526      -11.0796617886       22.1355702106  MEMB      56              0.0000000000
      6219        56  OSM       C15            28.1851368874      -11.0465974281       23.2965869383  MEMB      56              0.0000000000
      6220        56  OSM       H15A           27.7478509076      -11.5109542488       24.1663070597  MEMB      56              0.0000000000
      6221        56  OSM       H15B           28.4477403934      -10.0228949328       23.4889313293  MEMB      56              0.0000000000
      6222        56  OSM       H15C           29.0885252793      -11.6173823361       23.0730688253  MEMB      56              0.0000000000
      6223        56  OSM       C14            27.1050465594      -12.5165890125       21.7590621198  MEMB      56              0.0000000000
      6224        56  OSM       H14A           28.0352787109      -12.9851656031       21.4530544470  MEMB      56              0.0000000000
      6225        56  OSM       H14B           26.4179255233      -12.5925089360       20.9132547960  MEMB      56              0.0000000000
      6226        56  OSM       H14C           26.6332420903      -13.1453047550       22.5140388052  MEMB      56              0.0000000000
      6227        56  OSM       C13            25.9728402996      -10.4473261983       22.5408523571  MEMB      56              0.0000000000
      6228        56  OSM       H13A           26.1306711357       -9.4349763927       22.8944896545  MEMB      56              0.0000000000
      6229        56  OSM       H13B           25.4861954439      -10.9943182469       23.3379052198  MEMB      56              0.0000000000
      6230        56  OSM       H13C           25.2740156414      -10.4592208989       21.7105156374  MEMB      56              0.0000000000
      6231        56  OSM       C12            27.8413988302      -10.3276522370       20.9351238384  MEMB      56              0.0000000000
      6232        56  OSM       H12A           28.3825486552       -9.4885266336       21.3301768178  MEMB      56              0.0000000000
      6233        56  OSM       H12B           27.0657128782       -9.9315286513       20.2897282841  MEMB      56              0.0000000000
      6234        56  OSM       C11            28.8329205425      -11.0579845225       20.0049630681  MEMB      56              0.0000000000
      6235        56  OSM       H11A           29.3307988802      -10.2938667918       19.3682721093  MEMB      56              0.0000000000
      6236        56  OSM       H11B           28.2816655599      -11.7578341762       19.3274979128  MEMB      56              0.0000000000
      6237        56  OSM       P              30.9349856153      -12.5980637577       20.1006672006  MEMB      56              0.0000000000
      6238        56  OSM       O13            32.2471044919      -11.9112128663       20.1326991641  MEMB      56              0.0000000000
      6239        56  OSM       O14            30.8594141395      -13.9096280768       20.7476598037  MEMB      56              0.0000000000
      6240        56  OSM       O11            30.5076968600      -12.7401125427       18.5867098705  MEMB      56              0.0000000000
      6241        56  OSM       O12            29.8189492060      -11.7046333915       20.7847703952  MEMB      56              0.0000000000
      6242        56  OSM       C1S            29.8997635231      -13.9348591503       18.1037834723  MEMB      56              0.0000000000
      6243        56  OSM       H1S            28.8637350913      -14.0067372883       18.5145885715  MEMB      56              0.0000000000
      6244        56  OSM       H1T            30.4307470164      -14.8683306172       18.4110181465  MEMB      56              0.0000000000
      6245        56  OSM       NF             28.6988347821      -14.5300112852       16.1135073339  MEMB      56              0.0000000000
      6246        56  OSM       HNF            28.9045713804      -15.4392468137       15.7167069730  MEMB      56              0.0000000000
      6247        56  OSM       C2S            29.8513623324      -13.8386551773       16.5612106120  MEMB      56              0.0000000000
      6248        56  OSM       H2S            29.7178108535      -12.7703583027       16.2891228536  MEMB      56              0.0000000000
      6249        56  OSM       C3S            31.1170865765      -14.3736388774       15.8526932378  MEMB      56              0.0000000000
      6250        56  OSM       H3S            31.1799270646      -15.4544109645       15.7853420033  MEMB      56              0.0000000000
      6251        56  OSM       O3             32.3548031601      -14.1069667780       16.4784785067  MEMB      56              0.0000000000
      6252        56  OSM       HO3            32.0903598898      -13.6855892856       17.2974225541  MEMB      56              0.0000000000
      6253        56  OSM       C4S            31.0522720587      -13.8692489350       14.4474889541  MEMB      56              0.0000000000
      6254        56  OSM       H4S            30.7969906559      -12.8212591505       14.3369168099  MEMB      56              0.0000000000
      6255        56  OSM       C5S            31.1973736665      -14.6210357106       13.3642197713  MEMB      56              0.0000000000
      6256        56  OSM       H5S            31.3732432311      -15.6531741996       13.5567926303  MEMB      56              0.0000000000
      6257        56  OSM       C6S            31.1464326542      -14.2470453295       11.9235749706  MEMB      56              0.0000000000
      6258        56  OSM       H6S            30.2707553682      -14.7226561532       11.4382036636  MEMB      56              0.0000000000
      6259        56  OSM       H6T            32.0662279601      -14.5994801094       11.4016300194  MEMB      56              0.0000000000
      6260        56  OSM       C7S            31.0184271806      -12.7499784860       11.7887491092  MEMB      56              0.0000000000
      6261        56  OSM       H7S            31.9774824861      -12.3245258502       12.1592378953  MEMB      56              0.0000000000
      6262        56  OSM       H7T            30.1853021530      -12.3207192281       12.3634839971  MEMB      56              0.0000000000
      6263        56  OSM       C8S            30.7283073313      -12.3230464332       10.3718392640  MEMB      56              0.0000000000
      6264        56  OSM       H8S            30.0337096822      -12.9621036192        9.8177324507  MEMB      56              0.0000000000
      6265        56  OSM       H8T            31.6774558886      -12.6603334668        9.9327398733  MEMB      56              0.0000000000
      6266        56  OSM       C9S            30.2969088381      -10.8303353309       10.3089389954  MEMB      56              0.0000000000
      6267        56  OSM       H9S            30.1278508362      -10.3793026737        9.3456133297  MEMB      56              0.0000000000
      6268        56  OSM       H9T            30.9147658096      -10.0726711390       10.8192519989  MEMB      56              0.0000000000
      6269        56  OSM       C10S           28.8927448451      -10.4885360708       10.6477907836  MEMB      56              0.0000000000
      6270        56  OSM       H10S           28.8447630107       -9.3825928535       10.4730605253  MEMB      56              0.0000000000
      6271        56  OSM       H10T           28.8425299787      -10.6732517162       11.7337962615  MEMB      56              0.0000000000
      6272        56  OSM       C11S           27.8569451627      -11.1886881379        9.7457618853  MEMB      56              0.0000000000
      6273        56  OSM       H11S           26.9128117134      -10.9624342419       10.2735498215  MEMB      56              0.0000000000
      6274        56  OSM       H11T           27.9993627400      -12.2916367232        9.7728069460  MEMB      56              0.0000000000
      6275        56  OSM       C12S           27.7072312492      -10.6790193199        8.2735106277  MEMB      56              0.0000000000
      6276        56  OSM       H12S           28.5585668345      -11.0110666822        7.6385095171  MEMB      56              0.0000000000
      6277        56  OSM       H12T           27.7256472939       -9.5687066055        8.2494649051  MEMB      56              0.0000000000
      6278        56  OSM       C13S           26.3899094489      -11.0983802166        7.5746311694  MEMB      56              0.0000000000
      6279        56  OSM       H13S           25.5119959033      -10.6840434533        8.1223364739  MEMB      56              0.0000000000
      6280        56  OSM       H13T           26.3072092906      -12.2019712745        7.6261872673  MEMB      56              0.0000000000
      6281        56  OSM       C14S           26.3490347777      -10.6953782663        6.0841537846  MEMB      56              0.0000000000
      6282        56  OSM       H14S           27.2835840068      -11.0325104306        5.5854866143  MEMB      56              0.0000000000
      6283        56  OSM       H14T           26.3145153528       -9.5899659518        5.9868753405  MEMB      56              0.0000000000
      6284        56  OSM       C15S           25.1764543151      -11.2910017010        5.2895766329  MEMB      56              0.0000000000
      6285        56  OSM       H15S           25.1798092724      -10.7762758611        4.2942079430  MEMB      56              0.0000000000
      6286        56  OSM       H15T           24.2188353048      -11.0226524492        5.7887761853  MEMB      56              0.0000000000
      6287        56  OSM       C16S           25.2595611988      -12.8329538201        5.1897224789  MEMB      56              0.0000000000
      6288        56  OSM       H16S           24.2989574313      -13.3556757777        4.9938631131  MEMB      56              0.0000000000
      6289        56  OSM       H16T           25.3899210204      -13.2882727752        6.1761883449  MEMB      56              0.0000000000
      6290        56  OSM       C17S           26.2754688941      -13.3549544263        4.1504381009  MEMB      56              0.0000000000
      6291        56  OSM       H17S           26.0384486776      -14.4280442283        4.1024325448  MEMB      56              0.0000000000
      6292        56  OSM       H17T           27.3090887405      -13.2181620981        4.5156399476  MEMB      56              0.0000000000
      6293        56  OSM       C18S           26.2174297421      -12.8585567895        2.7036306988  MEMB      56              0.0000000000
      6294        56  OSM       H18S           26.5611398315      -11.8123853102        2.5853396967  MEMB      56              0.0000000000
      6295        56  OSM       H18T           25.2202341445      -13.0601266118        2.3138631478  MEMB      56              0.0000000000
      6296        56  OSM       H18U           26.7590486282      -13.4629925442        1.9746174734  MEMB      56              0.0000000000
      6297        56  OSM       C1F            27.5241223570      -14.0823890200       16.4807636308  MEMB      56              0.0000000000
      6298        56  OSM       OF             27.3259479485      -12.9114582011       16.6951405431  MEMB      56              0.0000000000
      6299        56  OSM       C2F            26.4825030071      -15.0017699574       16.4632690936  MEMB      56              0.0000000000
      6300        56  OSM       H2F            25.6569589948      -15.1268338597       17.1349617965  MEMB      56              0.0000000000
      6301        56  OSM       H2G            26.9183466792      -15.9673830996       16.8282362952  MEMB      56              0.0000000000
      6302        56  OSM       C3F            26.0323902920      -14.4490115522       15.0626865962  MEMB      56              0.0000000000
      6303        56  OSM       H3F            25.1074329026      -14.2339874279       14.5992913072  MEMB      56              0.0000000000
      6304        56  OSM       H3G            25.6425304279      -15.4175750168       15.2272480537  MEMB      56              0.0000000000
      6305        56  OSM       C4F            26.3670425194      -14.7472334313       13.7180395629  MEMB      56              0.0000000000
      6306        56  OSM       H4F            25.6614904281      -15.6776803103       13.5804840356  MEMB      56              0.0000000000
      6307        56  OSM       H4G            27.4544021313      -14.5364902621       13.6936466918  MEMB      56              0.0000000000
      6308        56  OSM       C5F            25.9521923642      -14.3430547716       12.4353684617  MEMB      56              0.0000000000
      6309        56  OSM       H5F            26.9420855518      -14.1840182227       11.9273720309  MEMB      56              0.0000000000
      6310        56  OSM       H5G            25.5961963212      -13.4537702041       12.5912522636  MEMB      56              0.0000000000
      6311        56  OSM       C6F            24.7840792434      -15.1232836841       11.8219946654  MEMB      56              0.0000000000
      6312        56  OSM       H6F            23.9436966916      -15.6216606715       12.3418118249  MEMB      56              0.0000000000
      6313        56  OSM       H6G            25.1312217837      -16.1052408005       12.0315806433  MEMB      56              0.0000000000
      6314        56  OSM       C7F            24.5244606237      -14.7963085994       10.2178115716  MEMB      56              0.0000000000
      6315        56  OSM       H7F            23.8522497279      -14.2659944796       10.4250503516  MEMB      56              0.0000000000
      6316        56  OSM       H7G            23.5674684341      -15.3653444488       10.2208038847  MEMB      56              0.0000000000
      6317        56  OSM       C8F            25.4824180764      -14.8551033065        8.6956229829  MEMB      56              0.0000000000
      6318        56  OSM       H8F            26.1653410922      -14.0566174168        8.9672182491  MEMB      56              0.0000000000
      6319        56  OSM       H8G            24.8215407988      -14.3510235221        7.9955597294  MEMB      56              0.0000000000
      6320        56  OSM       C9F            26.3412569791      -16.2051514704        7.9578701413  MEMB      56              0.0000000000
      6321        56  OSM       H9F            26.1206298048      -17.3163655402        8.2170882392  MEMB      56              0.0000000000
      6322        56  OSM       C10F           27.5349152098      -16.3999689486        7.5844263587  MEMB      56              0.0000000000
      6323        56  OSM       H10F           27.9281741102      -17.4067210727        7.6764279942  MEMB      56              0.0000000000
      6324        56  OSM       C11F           28.3809274850      -15.2731818188        7.7609518654  MEMB      56              0.0000000000
      6325        56  OSM       H11F           28.3388308573      -14.7714722671        8.7489339045  MEMB      56              0.0000000000
      6326        56  OSM       H11G           27.9189563395      -14.6391615324        6.9853060759  MEMB      56              0.0000000000
      6327        56  OSM       C12F           29.7195168315      -15.7238955780        7.3112524622  MEMB      56              0.0000000000
      6328        56  OSM       H12F           29.6257365507      -16.0683879298        6.2617892397  MEMB      56              0.0000000000
      6329        56  OSM       H12G           30.1902059690      -16.4976952407        7.9024091728  MEMB      56              0.0000000000
      6330        56  OSM       C13F           30.7342826890      -14.6524597933        7.4438714860  MEMB      56              0.0000000000
      6331        56  OSM       H13F           31.6927462444      -15.0393959605        7.0453290324  MEMB      56              0.0000000000
      6332        56  OSM       H13G           30.9067541434      -14.4096526579        8.5256400225  MEMB      56              0.0000000000
      6333        56  OSM       C14F           30.3140915956      -13.4230413244        6.6738488021  MEMB      56              0.0000000000
      6334        56  OSM       H14F           31.0920002335      -12.8230990011        7.0781834980  MEMB      56              0.0000000000
      6335        56  OSM       H14G           29.3851748178      -12.9505222825        7.0334365186  MEMB      56              0.0000000000
      6336        56  OSM       C15F           30.3776869902      -13.4580905980        5.1368083318  MEMB      56              0.0000000000
      6337        56  OSM       H15F           29.6429625642      -14.2101434583        4.7741347985  MEMB      56              0.0000000000
      6338        56  OSM       H15G           31.3926693136      -13.7363853611        4.7669610229  MEMB      56              0.0000000000
      6339        56  OSM       C16F           30.0132398149      -12.1126817687        4.4867858401  MEMB      56              0.0000000000
      6340        56  OSM       H16F           30.8242018816      -11.3731284154        4.6241649990  MEMB      56              0.0000000000
      6341        56  OSM       H16G           29.1130987612      -11.6753998589        4.9437925896  MEMB      56              0.0000000000
      6342        56  OSM       C17F           29.7828324681      -12.2390203652        3.0013150038  MEMB      56              0.0000000000
      6343        56  OSM       H17F           29.3599748110      -11.2907520180        2.5919062095  MEMB      56              0.0000000000
      6344        56  OSM       H17G           29.0763391802      -13.0368175451        2.7110296834  MEMB      56              0.0000000000
      6345        56  OSM       C18F           31.0589356922      -12.5372006549        2.3251658641  MEMB      56              0.0000000000
      6346        56  OSM       H18F           30.7605385247      -12.6589544626        1.2537870688  MEMB      56              0.0000000000
      6347        56  OSM       H18G           31.6452842495      -13.4412399934        2.5623527640  MEMB      56              0.0000000000
      6348        56  OSM       H18H           31.7699566123      -11.6922880494        2.4882491433  MEMB      56              0.0000000000
      6349        57  SLPC      N              29.8899760277        4.2310355962       15.7476025766  MEMB      57              0.0000000000
      6350        57  SLPC      C13            28.9844093194        5.3615468813       16.1152435021  MEMB      57              0.0000000000
      6351        57  SLPC      H13A           29.3850563861        5.8963482189       16.9749022892  MEMB      57              0.0000000000
      6352        57  SLPC      H13B           28.7630983092        6.0169639527       15.2942586896  MEMB      57              0.0000000000
      6353        57  SLPC      H13C           28.0348249223        4.9793873250       16.4812678497  MEMB      57              0.0000000000
      6354        57  SLPC      C14            29.5643749495        3.7642524463       14.3827305007  MEMB      57              0.0000000000
      6355        57  SLPC      H14A           28.5659168060        3.3710145260       14.4291466263  MEMB      57              0.0000000000
      6356        57  SLPC      H14B           29.5314088019        4.5924724854       13.6767575854  MEMB      57              0.0000000000
      6357        57  SLPC      H14C           30.1958830070        2.9684058245       14.0246174998  MEMB      57              0.0000000000
      6358        57  SLPC      C15            29.7028923211        3.2227901224       16.8045461854  MEMB      57              0.0000000000
      6359        57  SLPC      H15A           30.2355640277        2.3212714044       16.6551732674  MEMB      57              0.0000000000
      6360        57  SLPC      H15B           29.7538178796        3.6200453016       17.8077231542  MEMB      57              0.0000000000
      6361        57  SLPC      H15C           28.7185060218        2.7608111058       16.7446770860  MEMB      57              0.0000000000
      6362        57  SLPC      C12            31.2988009441        4.6699120785       15.7906938018  MEMB      57              0.0000000000
      6363        57  SLPC      H12A           31.3290712502        5.6594477504       15.3568685397  MEMB      57              0.0000000000
      6364        57  SLPC      H12B           31.8312554184        4.0048727141       15.1339363416  MEMB      57              0.0000000000
      6365        57  SLPC      C11            31.9683200038        4.7125859281       17.1843128925  MEMB      57              0.0000000000
      6366        57  SLPC      H11A           33.0254220426        5.0125457574       17.0004266840  MEMB      57              0.0000000000
      6367        57  SLPC      H11B           32.0486539508        3.7243554983       17.6952000861  MEMB      57              0.0000000000
      6368        57  SLPC      P              31.7949976456        7.0895157609       18.3212801559  MEMB      57              0.0000000000
      6369        57  SLPC      O13            31.2178581166        7.6481607909       19.5615672277  MEMB      57              0.0000000000
      6370        57  SLPC      O14            33.2712126252        7.0799947174       18.1523780371  MEMB      57              0.0000000000
      6371        57  SLPC      O12            31.2672519506        5.6060273867       18.0557150432  MEMB      57              0.0000000000
      6372        57  SLPC      O11            31.1591574253        7.7787077174       17.0391059631  MEMB      57              0.0000000000
      6373        57  SLPC      C1             30.0228108614        8.6378305795       17.1696314533  MEMB      57              0.0000000000
      6374        57  SLPC      HA             29.0777831421        8.0971406157       16.9671205758  MEMB      57              0.0000000000
      6375        57  SLPC      HB             29.9031362898        9.1084137319       18.1849236736  MEMB      57              0.0000000000
      6376        57  SLPC      C2             30.1429688662        9.7675736722       16.1541910169  MEMB      57              0.0000000000
      6377        57  SLPC      HS             29.2377498618       10.3868062012       16.2062238428  MEMB      57              0.0000000000
      6378        57  SLPC      O21            30.3597241019        9.3794008495       14.7928169304  MEMB      57              0.0000000000
      6379        57  SLPC      C21            29.4428638665        8.6453010168       14.2524390562  MEMB      57              0.0000000000
      6380        57  SLPC      O22            28.3312416091        8.4028344644       14.6801548090  MEMB      57              0.0000000000
      6381        57  SLPC      C22            29.9654565868        8.1637843413       12.9149334962  MEMB      57              0.0000000000
      6382        57  SLPC      H2R            31.0209985323        8.4775636347       12.7932326079  MEMB      57              0.0000000000
      6383        57  SLPC      H2S            29.9295727779        7.0605427684       12.8705123304  MEMB      57              0.0000000000
      6384        57  SLPC      C3             31.2661892170       10.7211975512       16.5338488403  MEMB      57              0.0000000000
      6385        57  SLPC      HX             31.0554671528       11.1552369274       17.5257937482  MEMB      57              0.0000000000
      6386        57  SLPC      HY             31.1058978042       11.4394614584       15.6925498192  MEMB      57              0.0000000000
      6387        57  SLPC      O31            32.5745703868       10.2197948432       16.6237079428  MEMB      57              0.0000000000
      6388        57  SLPC      C31            33.1844153274       10.2081157526       15.5107948021  MEMB      57              0.0000000000
      6389        57  SLPC      O32            32.9242256912       10.7799707996       14.4738443524  MEMB      57              0.0000000000
      6390        57  SLPC      C32            34.4008154963        9.4534563218       15.7324240744  MEMB      57              0.0000000000
      6391        57  SLPC      H2X            34.4655156223        8.8045726839       16.6112014873  MEMB      57              0.0000000000
      6392        57  SLPC      H2Y            34.9442614233       10.2916869016       16.0586584817  MEMB      57              0.0000000000
      6393        57  SLPC      C23            29.0978693535        8.7261140279       11.7826502615  MEMB      57              0.0000000000
      6394        57  SLPC      H3R            29.1547276502        9.8394822226       11.7729612880  MEMB      57              0.0000000000
      6395        57  SLPC      H3S            28.0434954964        8.4102845374       11.9718033838  MEMB      57              0.0000000000
      6396        57  SLPC      C24            29.5084268732        8.1900869983       10.4100114769  MEMB      57              0.0000000000
      6397        57  SLPC      H4R            29.0386612917        8.8254344167        9.6248086325  MEMB      57              0.0000000000
      6398        57  SLPC      H4S            29.1107025437        7.1551219633       10.3330615765  MEMB      57              0.0000000000
      6399        57  SLPC      C25            31.0140961920        8.1671954665       10.1425719253  MEMB      57              0.0000000000
      6400        57  SLPC      H5R            31.1804761491        7.7166719019        9.1500875215  MEMB      57              0.0000000000
      6401        57  SLPC      H5S            31.5643907953        7.5574315602       10.8894520644  MEMB      57              0.0000000000
      6402        57  SLPC      C26            31.6326804208        9.5407247414       10.2142280773  MEMB      57              0.0000000000
      6403        57  SLPC      H6R            31.5014014891        9.8419611712       11.2770264565  MEMB      57              0.0000000000
      6404        57  SLPC      H6S            31.0785698966       10.2559252791        9.5640047833  MEMB      57              0.0000000000
      6405        57  SLPC      C27            33.1356997989        9.5483185410        9.9431349945  MEMB      57              0.0000000000
      6406        57  SLPC      H7R            33.7231382061        8.6911590044       10.2913430138  MEMB      57              0.0000000000
      6407        57  SLPC      H7S            33.4968474757       10.3168349644       10.6602044879  MEMB      57              0.0000000000
      6408        57  SLPC      C28            33.4951246004        9.6820935314        8.4413228276  MEMB      57              0.0000000000
      6409        57  SLPC      H8R            33.1820181603        8.7947440007        7.9004379245  MEMB      57              0.0000000000
      6410        57  SLPC      H8S            34.6040812936        9.7726347980        8.3718639761  MEMB      57              0.0000000000
      6411        57  SLPC      C29            32.8621234651       10.8820851413        7.8349082144  MEMB      57              0.0000000000
      6412        57  SLPC      H9R            33.4965732009       11.7097850475        7.8236201780  MEMB      57              0.0000000000
      6413        57  SLPC      C210           31.9939706831       11.2790384623        7.0265608435  MEMB      57              0.0000000000
      6414        57  SLPC      H10R           32.0092003492       12.3366241684        6.6263364162  MEMB      57              0.0000000000
      6415        57  SLPC      C211           31.3330379651       10.2240266006        6.3990683961  MEMB      57              0.0000000000
      6416        57  SLPC      H11R           31.4541314992        9.2113337514        6.7979541984  MEMB      57              0.0000000000
      6417        57  SLPC      H11S           31.9158337266       10.2925457001        5.5363837230  MEMB      57              0.0000000000
      6418        57  SLPC      C212           30.1122949574       10.9976869736        6.4893116491  MEMB      57              0.0000000000
      6419        57  SLPC      H12R           29.4555896734       10.7541102794        7.3250640724  MEMB      57              0.0000000000
      6420        57  SLPC      C213           29.6303932984       11.6298502217        5.4667932647  MEMB      57              0.0000000000
      6421        57  SLPC      H13R           28.6582659423       12.0508583486        5.7071340658  MEMB      57              0.0000000000
      6422        57  SLPC      C214           30.0140998275       11.7986834659        3.9990234840  MEMB      57              0.0000000000
      6423        57  SLPC      H14R           29.9013663078       11.1841741203        3.0564637233  MEMB      57              0.0000000000
      6424        57  SLPC      H14S           30.5933499687       11.3010557140        3.3479591966  MEMB      57              0.0000000000
      6425        57  SLPC      C215           30.2046131362       12.7986665005        3.4460931174  MEMB      57              0.0000000000
      6426        57  SLPC      H15R           31.1463878970       13.0580204121        4.0125963366  MEMB      57              0.0000000000
      6427        57  SLPC      H15S           29.3401448210       13.1582734370        3.7915075423  MEMB      57              0.0000000000
      6428        57  SLPC      C216           29.7429961833       12.6567620887        1.9895044963  MEMB      57              0.0000000000
      6429        57  SLPC      H16R           30.3920737371       13.3646102839        2.3082715974  MEMB      57              0.0000000000
      6430        57  SLPC      H16S           28.8620094919       13.0805511129        1.5771017731  MEMB      57              0.0000000000
      6431        57  SLPC      C217           30.6378977770       12.0691612784        1.0711418500  MEMB      57              0.0000000000
      6432        57  SLPC      H17R           30.6732349194       12.5375003112        0.1239645767  MEMB      57              0.0000000000
      6433        57  SLPC      H17S           30.2758447377       11.1150749611        0.6678473548  MEMB      57              0.0000000000
      6434        57  SLPC      C218           31.9796576703       12.3871074009        1.6684029975  MEMB      57              0.0000000000
      6435        57  SLPC      H18R           32.5026636397       12.7813149876        2.5482248015  MEMB      57              0.0000000000
      6436        57  SLPC      H18S           32.5028382221       12.0067826795        0.9051837189  MEMB      57              0.0000000000
      6437        57  SLPC      H18T           32.0995484743       11.7106295721        2.4671811173  MEMB      57              0.0000000000
      6438        57  SLPC      C33            34.8597909684        8.8457866339       14.4470949418  MEMB      57              0.0000000000
      6439        57  SLPC      H3X            35.8149750075        8.3634537598       14.6520742429  MEMB      57              0.0000000000
      6440        57  SLPC      H3Y            34.9766257339        9.5684861226       13.6144416713  MEMB      57              0.0000000000
      6441        57  SLPC      C34            33.9171867148        7.7568289161       14.0612161794  MEMB      57              0.0000000000
      6442        57  SLPC      H4X            32.9324305271        8.2102143131       13.8596551845  MEMB      57              0.0000000000
      6443        57  SLPC      H4Y            33.8361634440        7.0514518670       14.9199382327  MEMB      57              0.0000000000
      6444        57  SLPC      C35            34.4181816512        7.0928737624       12.8204619528  MEMB      57              0.0000000000
      6445        57  SLPC      H5X            35.4815274476        6.8329111349       13.0551559949  MEMB      57              0.0000000000
      6446        57  SLPC      H5Y            34.5240020986        7.7708184151       11.9548503387  MEMB      57              0.0000000000
      6447        57  SLPC      C36            33.4777910759        5.9877344203       12.3557778268  MEMB      57              0.0000000000
      6448        57  SLPC      H6X            32.4025586313        6.1754873167       12.3246013385  MEMB      57              0.0000000000
      6449        57  SLPC      H6Y            33.4633871668        5.0632154105       12.9910843854  MEMB      57              0.0000000000
      6450        57  SLPC      C37            33.8368768746        5.7076647048       10.9374806002  MEMB      57              0.0000000000
      6451        57  SLPC      H7X            34.7963344230        5.3128375292       11.1381683794  MEMB      57              0.0000000000
      6452        57  SLPC      H7Y            34.5557116416        6.1357734025       10.2092604968  MEMB      57              0.0000000000
      6453        57  SLPC      C38            32.8787103992        4.7095868618       10.3792043419  MEMB      57              0.0000000000
      6454        57  SLPC      H8X            32.4635011820        3.7759595170       10.8594057928  MEMB      57              0.0000000000
      6455        57  SLPC      H8Y            33.5863120868        4.4617343402        9.6044372980  MEMB      57              0.0000000000
      6456        57  SLPC      C39            31.9944558622        5.3018248483        9.5083520984  MEMB      57              0.0000000000
      6457        57  SLPC      H9X            32.6941584686        6.0083855189        8.9776114240  MEMB      57              0.0000000000
      6458        57  SLPC      H9Y            31.3297494078        5.6614037527       10.3071570278  MEMB      57              0.0000000000
      6459        57  SLPC      C310           31.4347009493        4.3506297148        8.5752208270  MEMB      57              0.0000000000
      6460        57  SLPC      H10X           30.8427961034        3.5229521033        9.0826522394  MEMB      57              0.0000000000
      6461        57  SLPC      H10Y           32.1262453807        3.9110852295        7.7871563321  MEMB      57              0.0000000000
      6462        57  SLPC      C311           30.6698184842        5.2045944265        7.7514586435  MEMB      57              0.0000000000
      6463        57  SLPC      H11X           29.8792952001        5.7348014170        8.3280232289  MEMB      57              0.0000000000
      6464        57  SLPC      H11Y           30.4730381639        4.2088545655        7.2932693355  MEMB      57              0.0000000000
      6465        57  SLPC      C312           31.2564463279        6.1410344428        6.7763602413  MEMB      57              0.0000000000
      6466        57  SLPC      H12X           32.0480102538        5.6532486837        6.1837982680  MEMB      57              0.0000000000
      6467        57  SLPC      H12Y           31.7035595129        6.8818290283        7.4597672360  MEMB      57              0.0000000000
      6468        57  SLPC      C313           30.1825677965        6.9161715026        5.9999732907  MEMB      57              0.0000000000
      6469        57  SLPC      H13X           30.7227709265        7.7944807440        5.6437439166  MEMB      57              0.0000000000
      6470        57  SLPC      H13Y           29.3817411727        7.2656521478        6.6989270172  MEMB      57              0.0000000000
      6471        57  SLPC      C314           29.7270504944        6.3299136506        4.6605081461  MEMB      57              0.0000000000
      6472        57  SLPC      H14X           29.4912669485        5.2998147063        4.7728521851  MEMB      57              0.0000000000
      6473        57  SLPC      H14Y           30.5630076383        6.1725847926        3.9725061851  MEMB      57              0.0000000000
      6474        57  SLPC      C315           28.4748420228        6.9315466719        4.0324977995  MEMB      57              0.0000000000
      6475        57  SLPC      H15X           28.4518965510        7.8047350840        3.5068921257  MEMB      57              0.0000000000
      6476        57  SLPC      H15Y           27.7338720693        7.1547582774        4.8103031479  MEMB      57              0.0000000000
      6477        57  SLPC      C316           28.0823454446        6.3890074095        2.6836048152  MEMB      57              0.0000000000
      6478        57  SLPC      H16X           28.8912909776        6.0719951896        2.0012073101  MEMB      57              0.0000000000
      6479        57  SLPC      H16Y           27.3834625620        7.0360543707        2.0860516351  MEMB      57              0.0000000000
      6480        57  SLPC      C317           27.4044833311        5.2644039019        3.1750071495  MEMB      57              0.0000000000
      6481        57  SLPC      H17X           26.3936104951        5.4058133617        2.6864866740  MEMB      57              0.0000000000
      6482        57  SLPC      H17Y           26.9473205084        5.5258717301        4.1505486690  MEMB      57              0.0000000000
      6483        57  SLPC      C318           28.3632075807        3.9228869716        3.0626662930  MEMB      57              0.0000000000
      6484        57  SLPC      H18X           28.7140255642        3.2808985945        3.8520600442  MEMB      57              0.0000000000
      6485        57  SLPC      H18Y           28.8455899259        3.7100827404        2.1125914508  MEMB      57              0.0000000000
      6486        57  SLPC      H18Z           27.7336421150        3.0474658657        2.9469588683  MEMB      57              0.0000000000
      6487        58  SLPC      N              21.9663536893      -21.3730006838       18.3866076262  MEMB      58              0.0000000000
      6488        58  SLPC      C13            23.1168607978      -22.1614120145       18.6228066006  MEMB      58              0.0000000000
      6489        58  SLPC      H13A           23.8522535585      -21.7738513773       17.9425841815  MEMB      58              0.0000000000
      6490        58  SLPC      H13B           23.3415640649      -22.1572567950       19.6698585384  MEMB      58              0.0000000000
      6491        58  SLPC      H13C           22.8336211157      -23.1684310733       18.3111345414  MEMB      58              0.0000000000
      6492        58  SLPC      C14            22.1529298097      -20.0423754821       18.9552224224  MEMB      58              0.0000000000
      6493        58  SLPC      H14A           22.9630470646      -19.4906930104       18.5065411092  MEMB      58              0.0000000000
      6494        58  SLPC      H14B           21.2942339571      -19.3569371989       18.7857109839  MEMB      58              0.0000000000
      6495        58  SLPC      H14C           22.2422010930      -20.1173749478       20.0210753497  MEMB      58              0.0000000000
      6496        58  SLPC      C15            20.9180321478      -22.1104274937       19.1655156499  MEMB      58              0.0000000000
      6497        58  SLPC      H15A           20.1751266903      -21.3414698705       19.2209866144  MEMB      58              0.0000000000
      6498        58  SLPC      H15B           20.3864013747      -22.9303001935       18.6653680359  MEMB      58              0.0000000000
      6499        58  SLPC      H15C           21.0291236921      -22.2252940194       20.2275204722  MEMB      58              0.0000000000
      6500        58  SLPC      C12            21.8357344432      -21.1366690818       16.8616040066  MEMB      58              0.0000000000
      6501        58  SLPC      H12A           22.3167894849      -20.2124674107       16.5332925970  MEMB      58              0.0000000000
      6502        58  SLPC      H12B           20.9001842819      -20.6266423613       16.6983265087  MEMB      58              0.0000000000
      6503        58  SLPC      C11            21.7730938355      -22.2904389461       15.8446217659  MEMB      58              0.0000000000
      6504        58  SLPC      H11A           22.6759277389      -22.2748152360       15.2673519427  MEMB      58              0.0000000000
      6505        58  SLPC      H11B           21.0157546974      -22.1711805105       15.0372326841  MEMB      58              0.0000000000
      6506        58  SLPC      P              21.0402173392      -24.8049782342       15.8658177420  MEMB      58              0.0000000000
      6507        58  SLPC      O13            19.8872374615      -25.3986919365       16.5745242325  MEMB      58              0.0000000000
      6508        58  SLPC      O14            21.0054128700      -24.6093057088       14.4076492258  MEMB      58              0.0000000000
      6509        58  SLPC      O12            21.5058853493      -23.4813033564       16.5547715670  MEMB      58              0.0000000000
      6510        58  SLPC      O11            22.3079602183      -25.5507649176       16.1520915523  MEMB      58              0.0000000000
      6511        58  SLPC      C1             23.3853829245      -25.3829031112       16.9815633099  MEMB      58              0.0000000000
      6512        58  SLPC      HA             23.2684720126      -24.4589433901       17.5430517986  MEMB      58              0.0000000000
      6513        58  SLPC      HB             23.4844696003      -26.2559441571       17.6396790411  MEMB      58              0.0000000000
      6514        58  SLPC      C2             24.6242224470      -25.0867759796       16.1924897287  MEMB      58              0.0000000000
      6515        58  SLPC      HS             25.2599757610      -24.5930555581       16.9377311503  MEMB      58              0.0000000000
      6516        58  SLPC      O21            24.2025753313      -24.4551216597       14.9526382602  MEMB      58              0.0000000000
      6517        58  SLPC      C21            24.6740813407      -23.2555184232       14.9050030387  MEMB      58              0.0000000000
      6518        58  SLPC      O22            25.1593558576      -22.7153907734       15.8878003699  MEMB      58              0.0000000000
      6519        58  SLPC      C22            24.4886306502      -22.4668550082       13.5367288213  MEMB      58              0.0000000000
      6520        58  SLPC      H2R            24.8340820605      -22.6999506178       12.5521529543  MEMB      58              0.0000000000
      6521        58  SLPC      H2S            23.4806517029      -22.7133017429       13.2510293481  MEMB      58              0.0000000000
      6522        58  SLPC      C3             25.4897890020      -26.2257601513       15.8885068101  MEMB      58              0.0000000000
      6523        58  SLPC      HX             25.7221409712      -26.8146221884       16.7789569961  MEMB      58              0.0000000000
      6524        58  SLPC      HY             26.4537758850      -26.0577820797       15.3810583423  MEMB      58              0.0000000000
      6525        58  SLPC      O31            24.6182393479      -26.9606187015       15.1969151571  MEMB      58              0.0000000000
      6526        58  SLPC      C31            25.1239420476      -27.3950346837       14.1652597856  MEMB      58              0.0000000000
      6527        58  SLPC      O32            25.9387562010      -27.0646039136       13.4519225755  MEMB      58              0.0000000000
      6528        58  SLPC      C32            24.3972295843      -28.0213606122       13.9241742597  MEMB      58              0.0000000000
      6529        58  SLPC      H2X            23.7845284326      -29.1614084432       13.5470910847  MEMB      58              0.0000000000
      6530        58  SLPC      H2Y            24.4354793440      -29.0654875605       13.2364931904  MEMB      58              0.0000000000
      6531        58  SLPC      C23            25.2994042410      -21.1685566931       13.2908228700  MEMB      58              0.0000000000
      6532        58  SLPC      H3R            26.3867451066      -21.3288642914       13.0391239074  MEMB      58              0.0000000000
      6533        58  SLPC      H3S            25.1821383430      -20.6465909792       14.2481294644  MEMB      58              0.0000000000
      6534        58  SLPC      C24            24.8448008766      -20.4040305125       12.0599832462  MEMB      58              0.0000000000
      6535        58  SLPC      H4R            24.9285787849      -20.9594765057       11.1002657269  MEMB      58              0.0000000000
      6536        58  SLPC      H4S            25.5662626954      -19.5971423353       11.9409975433  MEMB      58              0.0000000000
      6537        58  SLPC      C25            23.4509622258      -19.9041292197       12.3036554282  MEMB      58              0.0000000000
      6538        58  SLPC      H5R            23.4505772634      -19.4003306239       13.3024362975  MEMB      58              0.0000000000
      6539        58  SLPC      H5S            22.7111191871      -20.7072490278       12.2163490572  MEMB      58              0.0000000000
      6540        58  SLPC      C26            22.9492584580      -18.9851013280       11.2689684261  MEMB      58              0.0000000000
      6541        58  SLPC      H6R            23.3066817923      -18.0903928356       11.7753336675  MEMB      58              0.0000000000
      6542        58  SLPC      H6S            21.9604755749      -18.5720254306       11.2302936357  MEMB      58              0.0000000000
      6543        58  SLPC      C27            23.1550919374      -19.4799571353        9.8674796565  MEMB      58              0.0000000000
      6544        58  SLPC      H7R            24.1999749912      -19.4683298026        9.5578331251  MEMB      58              0.0000000000
      6545        58  SLPC      H7S            22.5947569427      -18.7712740917        9.2527550345  MEMB      58              0.0000000000
      6546        58  SLPC      C28            22.4850342929      -20.7097044316        9.3869296067  MEMB      58              0.0000000000
      6547        58  SLPC      H8R            21.5653355831      -20.3978344424        9.3304514925  MEMB      58              0.0000000000
      6548        58  SLPC      H8S            22.2338198723      -21.3217008279       10.2358606161  MEMB      58              0.0000000000
      6549        58  SLPC      C29            21.9788973017      -20.9139514787        8.0137959458  MEMB      58              0.0000000000
      6550        58  SLPC      H9R            21.0016767552      -20.5134242556        7.6352970458  MEMB      58              0.0000000000
      6551        58  SLPC      C210           22.8896753956      -21.4174715451        7.2740637788  MEMB      58              0.0000000000
      6552        58  SLPC      H10R           22.7647432971      -21.6838157614        6.2465552088  MEMB      58              0.0000000000
      6553        58  SLPC      C211           24.2010605929      -21.7107560720        7.8221118096  MEMB      58              0.0000000000
      6554        58  SLPC      H11R           24.5736296905      -21.1788422817        8.7103357679  MEMB      58              0.0000000000
      6555        58  SLPC      H11S           24.8101309566      -21.3456701909        7.0468523932  MEMB      58              0.0000000000
      6556        58  SLPC      C212           24.2261467154      -23.1685188643        8.0023427510  MEMB      58              0.0000000000
      6557        58  SLPC      H12R           23.9382632775      -23.4783014099        9.0067669058  MEMB      58              0.0000000000
      6558        58  SLPC      C213           24.7679911767      -24.0297817224        7.1493727804  MEMB      58              0.0000000000
      6559        58  SLPC      H13R           25.0445437201      -25.0572490371        7.4189426448  MEMB      58              0.0000000000
      6560        58  SLPC      C214           25.4221162355      -23.6978680857        5.9322243879  MEMB      58              0.0000000000
      6561        58  SLPC      H14R           26.5459809094      -23.5819369305        6.0977401178  MEMB      58              0.0000000000
      6562        58  SLPC      H14S           24.9880456678      -22.7490618097        5.5783303244  MEMB      58              0.0000000000
      6563        58  SLPC      C215           25.1233580310      -24.7000230942        4.8357062411  MEMB      58              0.0000000000
      6564        58  SLPC      H15R           25.1830235943      -24.2577569376        3.8215396852  MEMB      58              0.0000000000
      6565        58  SLPC      H15S           24.1117180062      -25.0989948889        4.9839619164  MEMB      58              0.0000000000
      6566        58  SLPC      C216           26.1989116336      -25.7189987135        4.8961935577  MEMB      58              0.0000000000
      6567        58  SLPC      H16R           26.1512257080      -26.2939064643        5.8737377996  MEMB      58              0.0000000000
      6568        58  SLPC      H16S           27.0791152638      -25.0746899358        4.8746597019  MEMB      58              0.0000000000
      6569        58  SLPC      C217           26.3344072239      -26.7365385033        3.7579717630  MEMB      58              0.0000000000
      6570        58  SLPC      H17R           25.4125242998      -27.0541081453        3.4169812045  MEMB      58              0.0000000000
      6571        58  SLPC      H17S           26.6899259344      -27.5823417120        4.3352140897  MEMB      58              0.0000000000
      6572        58  SLPC      C218           26.4764898939      -26.6481847227        2.2476091044  MEMB      58              0.0000000000
      6573        58  SLPC      H18R           27.5176327639      -26.8470042458        1.9765951179  MEMB      58              0.0000000000
      6574        58  SLPC      H18S           26.1304052387      -25.6157729413        2.0407581672  MEMB      58              0.0000000000
      6575        58  SLPC      H18T           25.9126462755      -27.4198955759        1.6769907060  MEMB      58              0.0000000000
      6576        58  SLPC      C33            23.3060662206      -25.6636741077       12.5034248127  MEMB      58              0.0000000000
      6577        58  SLPC      H3X            23.1040782638      -25.4148664781       11.5468145048  MEMB      58              0.0000000000
      6578        58  SLPC      H3Y            22.2572682103      -25.4572239302       12.8485387620  MEMB      58              0.0000000000
      6579        58  SLPC      C34            23.0155556550      -26.5938979276       10.1535684423  MEMB      58              0.0000000000
      6580        58  SLPC      H4X            22.3443323233      -25.8111211801        9.9600198099  MEMB      58              0.0000000000
      6581        58  SLPC      H4Y            22.5518616807      -27.9041924936       10.0644901589  MEMB      58              0.0000000000
      6582        58  SLPC      C35            23.4711870185      -27.5790382497        9.0696569719  MEMB      58              0.0000000000
      6583        58  SLPC      H5X            23.8506434691      -28.5742495480        9.4439080275  MEMB      58              0.0000000000
      6584        58  SLPC      H5Y            23.8181184295      -26.6938382946        9.2976566464  MEMB      58              0.0000000000
      6585        58  SLPC      C36            22.6251689696      -27.4597310337        7.7898984994  MEMB      58              0.0000000000
      6586        58  SLPC      H6X            21.5899708544      -27.1083487426        7.5208170909  MEMB      58              0.0000000000
      6587        58  SLPC      H6Y            22.4961078404      -28.4266349160        7.5061310356  MEMB      58              0.0000000000
      6588        58  SLPC      C37            23.1563167208      -27.0499255052        6.7839906066  MEMB      58              0.0000000000
      6589        58  SLPC      H7X            24.0229251120      -27.7438744424        7.1215762261  MEMB      58              0.0000000000
      6590        58  SLPC      H7Y            23.4473971272      -26.0355647291        6.9272131865  MEMB      58              0.0000000000
      6591        58  SLPC      C38            21.9976122755      -27.5425949090        5.7793761909  MEMB      58              0.0000000000
      6592        58  SLPC      H8X            22.0283071122      -28.6591926596        5.6092803535  MEMB      58              0.0000000000
      6593        58  SLPC      H8Y            22.6688853111      -26.8003941145        5.3361200709  MEMB      58              0.0000000000
      6594        58  SLPC      C39            20.7919875297      -26.8380822294        5.2682063614  MEMB      58              0.0000000000
      6595        58  SLPC      H9X            19.9794877195      -27.0598252410        5.9768837994  MEMB      58              0.0000000000
      6596        58  SLPC      H9Y            20.4555375291      -27.2298892995        4.2691270452  MEMB      58              0.0000000000
      6597        58  SLPC      C310           21.2044249190      -25.3734708908        5.1682252786  MEMB      58              0.0000000000
      6598        58  SLPC      H10X           21.9159424779      -25.1903491690        4.3201988842  MEMB      58              0.0000000000
      6599        58  SLPC      H10Y           21.6375528157      -24.9664114124        6.1018193214  MEMB      58              0.0000000000
      6600        58  SLPC      C311           19.9078153611      -24.7315073964        4.9811458166  MEMB      58              0.0000000000
      6601        58  SLPC      H11X           19.3136050394      -25.1963136832        5.7420375948  MEMB      58              0.0000000000
      6602        58  SLPC      H11Y           19.6239412263      -25.0391690099        3.9361632853  MEMB      58              0.0000000000
      6603        58  SLPC      C312           19.6756953109      -23.2622318848        5.2127471667  MEMB      58              0.0000000000
      6604        58  SLPC      H12X           20.7839071211      -23.1737648194        5.0897958692  MEMB      58              0.0000000000
      6605        58  SLPC      H12Y           19.8481328336      -22.9059930465        6.2458155314  MEMB      58              0.0000000000
      6606        58  SLPC      C313           18.5835038606      -22.3852395792        4.2431887201  MEMB      58              0.0000000000
      6607        58  SLPC      H13X           18.4372717496      -21.3056565290        4.4325253063  MEMB      58              0.0000000000
      6608        58  SLPC      H13Y           17.6605043263      -22.5599507953        4.7392791464  MEMB      58              0.0000000000
      6609        58  SLPC      C314           18.4533101739      -22.2059619976        2.5837767012  MEMB      58              0.0000000000
      6610        58  SLPC      H14X           17.7054229326      -21.4553905879        2.6301605256  MEMB      58              0.0000000000
      6611        58  SLPC      H14Y           18.1355085813      -23.2106890708        2.2970676866  MEMB      58              0.0000000000
      6612        58  SLPC      C315           19.4594594527      -21.5953266349        1.4561051512  MEMB      58              0.0000000000
      6613        58  SLPC      H15X           20.5878456891      -21.6895270287        1.3193257794  MEMB      58              0.0000000000
      6614        58  SLPC      H15Y           19.5628272384      -20.5507353950        1.6639173594  MEMB      58              0.0000000000
      6615        58  SLPC      C316           19.2498087743      -22.0436261878        0.0837753347  MEMB      58              0.0000000000
      6616        58  SLPC      H16X           18.3467638430      -21.4213571260       -0.0739669484  MEMB      58              0.0000000000
      6617        58  SLPC      H16Y           19.0992402791      -23.1358210603        0.0572035822  MEMB      58              0.0000000000
      6618        58  SLPC      C317           20.4915601787      -21.6967819082       -0.6903139849  MEMB      58              0.0000000000
      6619        58  SLPC      H17X           20.2690744727      -22.0384212147       -1.7031556752  MEMB      58              0.0000000000
      6620        58  SLPC      H17Y           21.5086748580      -22.0610671258       -0.3509275318  MEMB      58              0.0000000000
      6621        58  SLPC      C318           20.5793900443      -20.2478039391       -0.6530421160  MEMB      58              0.0000000000
      6622        58  SLPC      H18X           20.9531828030      -19.6882325961        0.2428806323  MEMB      58              0.0000000000
      6623        58  SLPC      H18Y           19.6354738613      -19.7772284974       -1.0158224979  MEMB      58              0.0000000000
      6624        58  SLPC      H18Z           21.3752045072      -20.1422934381       -1.3967805803  MEMB      58              0.0000000000
      6625        59  CHL1      C3              7.9374286421      -31.3679589162       17.3901467683  MEMB      59              0.0000000000
      6626        59  CHL1      H3              7.0616323305      -30.7053686967       17.5767296558  MEMB      59              0.0000000000
      6627        59  CHL1      O3              8.7809086627      -31.3368454605       18.5319541599  MEMB      59              0.0000000000
      6628        59  CHL1      H3'             9.5283626562      -31.8957448214       18.2886820945  MEMB      59              0.0000000000
      6629        59  CHL1      C4              7.4639609058      -32.8163018341       17.1149982397  MEMB      59              0.0000000000
      6630        59  CHL1      H4A             8.3424036003      -33.4925700145       17.1462920069  MEMB      59              0.0000000000
      6631        59  CHL1      H4B             6.7960535523      -33.0867008466       17.9618738629  MEMB      59              0.0000000000
      6632        59  CHL1      C5              6.7558477839      -32.9393338192       15.7794031802  MEMB      59              0.0000000000
      6633        59  CHL1      C6              5.4757391256      -33.3370524729       15.6660087721  MEMB      59              0.0000000000
      6634        59  CHL1      H6              4.9250768061      -33.6525108753       16.5628535310  MEMB      59              0.0000000000
      6635        59  CHL1      C7              4.7580145473      -33.4548351131       14.3471440874  MEMB      59              0.0000000000
      6636        59  CHL1      H7A             4.1153209848      -34.3451215277       14.3380429809  MEMB      59              0.0000000000
      6637        59  CHL1      H7B             4.1004584273      -32.5761041905       14.1477898295  MEMB      59              0.0000000000
      6638        59  CHL1      C8              5.7696846854      -33.5648778627       13.1818131468  MEMB      59              0.0000000000
      6639        59  CHL1      H8              6.2478921853      -34.5618849825       13.2827424528  MEMB      59              0.0000000000
      6640        59  CHL1      C14             5.0630325179      -33.4827737676       11.8524174735  MEMB      59              0.0000000000
      6641        59  CHL1      H14             4.5096181679      -32.5059662326       11.8529867623  MEMB      59              0.0000000000
      6642        59  CHL1      C15             4.0385771100      -34.5836328234       11.5776350312  MEMB      59              0.0000000000
      6643        59  CHL1      H15A            4.4119772805      -35.5822369539       11.8872284902  MEMB      59              0.0000000000
      6644        59  CHL1      H15B            3.0677549119      -34.4142508692       12.1026101266  MEMB      59              0.0000000000
      6645        59  CHL1      C16             4.0004074400      -34.6067423090       10.0378556321  MEMB      59              0.0000000000
      6646        59  CHL1      H16A            4.2585947542      -35.6021964302        9.6781322251  MEMB      59              0.0000000000
      6647        59  CHL1      H16B            2.9517768325      -34.5103956154        9.7743686563  MEMB      59              0.0000000000
      6648        59  CHL1      C17             5.1186175445      -33.6322180368        9.4442082370  MEMB      59              0.0000000000
      6649        59  CHL1      H17             4.5907231280      -32.6316729057        9.4606856880  MEMB      59              0.0000000000
      6650        59  CHL1      C13             6.0216239697      -33.4640717489       10.6460148948  MEMB      59              0.0000000000
      6651        59  CHL1      C18             6.8597576599      -34.7625134379       10.6162208533  MEMB      59              0.0000000000
      6652        59  CHL1      H18A            7.6694893631      -34.6881171207        9.8666071218  MEMB      59              0.0000000000
      6653        59  CHL1      H18B            7.3103492281      -35.0316866088       11.5807020250  MEMB      59              0.0000000000
      6654        59  CHL1      H18C            6.2171268998      -35.6169612842       10.3319257453  MEMB      59              0.0000000000
      6655        59  CHL1      C12             6.8186724649      -32.1566423493       10.7037791763  MEMB      59              0.0000000000
      6656        59  CHL1      H12A            7.4774379920      -32.0689592582        9.8207051923  MEMB      59              0.0000000000
      6657        59  CHL1      H12B            6.1547804225      -31.2584453830       10.7225884801  MEMB      59              0.0000000000
      6658        59  CHL1      C11             7.6450573557      -32.1691533348       11.9834564097  MEMB      59              0.0000000000
      6659        59  CHL1      H11A            8.3998393227      -32.9684026217       11.8413472775  MEMB      59              0.0000000000
      6660        59  CHL1      H11B            8.1670006223      -31.1911156935       12.0480476847  MEMB      59              0.0000000000
      6661        59  CHL1      C9              6.7924049858      -32.4322219716       13.2684918163  MEMB      59              0.0000000000
      6662        59  CHL1      H9              6.1366240746      -31.5263399979       13.3421991518  MEMB      59              0.0000000000
      6663        59  CHL1      C10             7.6097732391      -32.4957626833       14.5770102619  MEMB      59              0.0000000000
      6664        59  CHL1      C19             8.7604378929      -33.5417719369       14.4023016104  MEMB      59              0.0000000000
      6665        59  CHL1      H19A            9.5794354754      -33.2122253587       13.7276495496  MEMB      59              0.0000000000
      6666        59  CHL1      H19B            9.2370927647      -33.8526672959       15.3452475239  MEMB      59              0.0000000000
      6667        59  CHL1      H19C            8.3200235821      -34.4747189919       13.9982404010  MEMB      59              0.0000000000
      6668        59  CHL1      C1              8.0866178334      -31.0455628144       14.8517820070  MEMB      59              0.0000000000
      6669        59  CHL1      H1A             8.8165222870      -30.7648697564       14.0690156309  MEMB      59              0.0000000000
      6670        59  CHL1      H1B             7.2066077042      -30.3692083263       14.7251453257  MEMB      59              0.0000000000
      6671        59  CHL1      C2              8.7500379607      -30.8199137506       16.2163739949  MEMB      59              0.0000000000
      6672        59  CHL1      H2A             8.9347766921      -29.7318399229       16.3634155262  MEMB      59              0.0000000000
      6673        59  CHL1      H2B             9.7229297568      -31.3588791903       16.1852043888  MEMB      59              0.0000000000
      6674        59  CHL1      C20             5.8154921382      -33.9482643839        7.9511673915  MEMB      59              0.0000000000
      6675        59  CHL1      H20             6.6028484058      -34.6832165745        8.1275631813  MEMB      59              0.0000000000
      6676        59  CHL1      C21             6.3633823926      -32.5474999595        7.4322109277  MEMB      59              0.0000000000
      6677        59  CHL1      H21A            7.3651528620      -32.2730550762        7.7905591660  MEMB      59              0.0000000000
      6678        59  CHL1      H21B            5.7204289583      -31.6863207077        7.7617018424  MEMB      59              0.0000000000
      6679        59  CHL1      H21C            6.3178980704      -32.4650199033        6.3307820904  MEMB      59              0.0000000000
      6680        59  CHL1      C22             5.1043194577      -34.9665918412        6.8633559006  MEMB      59              0.0000000000
      6681        59  CHL1      H22A            4.7653209830      -35.7575808888        7.4494415920  MEMB      59              0.0000000000
      6682        59  CHL1      H22B            4.1254278311      -35.2299816094        6.7390786772  MEMB      59              0.0000000000
      6683        59  CHL1      C23             5.1885721319      -35.3661466060        5.3784223324  MEMB      59              0.0000000000
      6684        59  CHL1      H23A            5.3639794078      -34.4179160569        4.9862967103  MEMB      59              0.0000000000
      6685        59  CHL1      H23B            6.1661907646      -35.7559536872        5.5590568163  MEMB      59              0.0000000000
      6686        59  CHL1      C24             3.8341361321      -36.1524883154        4.9525343907  MEMB      59              0.0000000000
      6687        59  CHL1      H24A            3.8652440163      -37.0779584936        5.4940147790  MEMB      59              0.0000000000
      6688        59  CHL1      H24B            2.8137532601      -35.9142878442        5.3886987657  MEMB      59              0.0000000000
      6689        59  CHL1      C25             3.4897664033      -36.0367233865        3.4911595950  MEMB      59              0.0000000000
      6690        59  CHL1      H25             4.4797621649      -35.9519020196        3.0156349262  MEMB      59              0.0000000000
      6691        59  CHL1      C26             3.1163586719      -37.1741255516        2.8202057287  MEMB      59              0.0000000000
      6692        59  CHL1      H26A            3.3871568130      -38.0810170247        3.3630027142  MEMB      59              0.0000000000
      6693        59  CHL1      H26B            2.2017970461      -36.7895492909        3.2827838709  MEMB      59              0.0000000000
      6694        59  CHL1      H26C            2.8819132497      -37.2019125702        1.7546301967  MEMB      59              0.0000000000
      6695        59  CHL1      C27             2.4972874328      -34.9227959484        3.0298645146  MEMB      59              0.0000000000
      6696        59  CHL1      H27A            3.0294252990      -34.9048351855        2.0431346435  MEMB      59              0.0000000000
      6697        59  CHL1      H27B            1.4438020494      -34.7599051823        2.8427742273  MEMB      59              0.0000000000
      6698        59  CHL1      H27C            2.5136837432      -34.0012323931        3.5532963566  MEMB      59              0.0000000000
      6699        60  CHL1      C3            -12.1634262722       29.9838106152       17.3586725926  MEMB      60              0.0000000000
      6700        60  CHL1      H3            -11.1593393646       29.5055471365       17.3232157465  MEMB      60              0.0000000000
      6701        60  CHL1      O3            -12.5020045106       30.0808595407       18.7260829544  MEMB      60              0.0000000000
      6702        60  CHL1      H3'           -11.7236058007       30.4668426001       19.1399216279  MEMB      60              0.0000000000
      6703        60  CHL1      C4            -12.1393750191       31.3713527024       16.7258735551  MEMB      60              0.0000000000
      6704        60  CHL1      H4A           -13.0938689340       31.8838527707       16.9086160127  MEMB      60              0.0000000000
      6705        60  CHL1      H4B           -11.3244302816       31.9853871446       17.1832893274  MEMB      60              0.0000000000
      6706        60  CHL1      C5            -11.9374884652       31.1829505296       15.2614444642  MEMB      60              0.0000000000
      6707        60  CHL1      C6            -10.8373029882       31.6712442873       14.7756828388  MEMB      60              0.0000000000
      6708        60  CHL1      H6            -10.1245262440       32.3593148666       15.3043240301  MEMB      60              0.0000000000
      6709        60  CHL1      C7            -10.6538817020       31.3682772065       13.3888951315  MEMB      60              0.0000000000
      6710        60  CHL1      H7A           -10.3315864342       32.3816575102       13.4538694530  MEMB      60              0.0000000000
      6711        60  CHL1      H7B            -9.7383462269       30.8002018365       13.1231586194  MEMB      60              0.0000000000
      6712        60  CHL1      C8            -11.8380670965       31.1929605698       12.3336754037  MEMB      60              0.0000000000
      6713        60  CHL1      H8            -12.4276453204       32.1346019770       12.2898485862  MEMB      60              0.0000000000
      6714        60  CHL1      C14           -11.5449432929       30.7345354729       10.8634305870  MEMB      60              0.0000000000
      6715        60  CHL1      H14           -10.8703345005       29.8451983967       10.9950897842  MEMB      60              0.0000000000
      6716        60  CHL1      C15           -10.9055327541       31.6056501109        9.8016952135  MEMB      60              0.0000000000
      6717        60  CHL1      H15A          -11.0139250990       32.7017439433        9.8227316905  MEMB      60              0.0000000000
      6718        60  CHL1      H15B           -9.9218269854       31.3325162086        9.9741002003  MEMB      60              0.0000000000
      6719        60  CHL1      C16           -10.9347723024       31.0188610955        8.4763197537  MEMB      60              0.0000000000
      6720        60  CHL1      H16A          -11.0982626216       31.9144997388        7.8358992226  MEMB      60              0.0000000000
      6721        60  CHL1      H16B          -10.0224336177       30.4564187505        8.1659687811  MEMB      60              0.0000000000
      6722        60  CHL1      C17           -11.9598077519       29.9810777700        8.6546972403  MEMB      60              0.0000000000
      6723        60  CHL1      H17           -11.3888471938       29.0344714304        8.8464755413  MEMB      60              0.0000000000
      6724        60  CHL1      C13           -12.6785333129       30.3302446815        9.9733053170  MEMB      60              0.0000000000
      6725        60  CHL1      C18           -13.5923251701       31.5757499962        9.7692019211  MEMB      60              0.0000000000
      6726        60  CHL1      H18A          -13.0530611943       32.4524605849        9.3702075388  MEMB      60              0.0000000000
      6727        60  CHL1      H18B          -14.4046675086       31.3916409057        9.0456239352  MEMB      60              0.0000000000
      6728        60  CHL1      H18C          -14.0100601427       31.8972042828       10.7381681720  MEMB      60              0.0000000000
      6729        60  CHL1      C12           -13.2770228968       29.1070653790       10.6091623610  MEMB      60              0.0000000000
      6730        60  CHL1      H12A          -14.1513444344       28.8333353604       10.0027736115  MEMB      60              0.0000000000
      6731        60  CHL1      H12B          -12.5331811520       28.2818018694       10.5310251334  MEMB      60              0.0000000000
      6732        60  CHL1      C11           -13.6235393576       29.3421734576       12.0808743074  MEMB      60              0.0000000000
      6733        60  CHL1      H11A          -14.5494964178       29.9435082016       12.0703831497  MEMB      60              0.0000000000
      6734        60  CHL1      H11B          -13.8555613663       28.3667055314       12.5477201571  MEMB      60              0.0000000000
      6735        60  CHL1      C9            -12.5186778238       30.0142293420       12.9505983055  MEMB      60              0.0000000000
      6736        60  CHL1      H9            -11.6692330703       29.2799947051       12.9939897365  MEMB      60              0.0000000000
      6737        60  CHL1      C10           -12.8982431486       30.2728795644       14.4290079870  MEMB      60              0.0000000000
      6738        60  CHL1      C19           -14.3155843397       30.8906244856       14.4129345720  MEMB      60              0.0000000000
      6739        60  CHL1      H19A          -14.5665442548       31.2640389670       15.4221157099  MEMB      60              0.0000000000
      6740        60  CHL1      H19B          -14.3670087599       31.7207351256       13.6804552814  MEMB      60              0.0000000000
      6741        60  CHL1      H19C          -15.1119125113       30.1640770323       14.1427656158  MEMB      60              0.0000000000
      6742        60  CHL1      C1            -12.8929536899       28.9226603818       15.1709340796  MEMB      60              0.0000000000
      6743        60  CHL1      H1A           -13.6445012397       28.2529908928       14.6986250084  MEMB      60              0.0000000000
      6744        60  CHL1      H1B           -11.8891786226       28.4427567078       15.0868849824  MEMB      60              0.0000000000
      6745        60  CHL1      C2            -13.1955097817       29.0952041977       16.6604905146  MEMB      60              0.0000000000
      6746        60  CHL1      H2A           -13.1899576800       28.1125302686       17.1622011336  MEMB      60              0.0000000000
      6747        60  CHL1      H2B           -14.1913107558       29.5807437414       16.7847714801  MEMB      60              0.0000000000
      6748        60  CHL1      C20           -12.6548867125       29.9997007841        7.3380058689  MEMB      60              0.0000000000
      6749        60  CHL1      H20           -13.0588564917       31.0317280195        7.2047970960  MEMB      60              0.0000000000
      6750        60  CHL1      C21           -13.7864397386       28.9892665156        7.3498864403  MEMB      60              0.0000000000
      6751        60  CHL1      H21A          -13.3605602445       27.9751584941        7.5035937042  MEMB      60              0.0000000000
      6752        60  CHL1      H21B          -14.3687870532       29.0079475348        6.4149095476  MEMB      60              0.0000000000
      6753        60  CHL1      H21C          -14.5053106813       29.2628887546        8.1405275571  MEMB      60              0.0000000000
      6754        60  CHL1      C22           -11.6592152823       29.7579525455        6.1883038370  MEMB      60              0.0000000000
      6755        60  CHL1      H22A          -10.8518178320       30.5226187104        6.1498317375  MEMB      60              0.0000000000
      6756        60  CHL1      H22B          -11.1600383577       28.7663130949        6.2670300241  MEMB      60              0.0000000000
      6757        60  CHL1      C23           -12.3175169853       29.8151602054        4.8454376193  MEMB      60              0.0000000000
      6758        60  CHL1      H23A          -13.2796593242       29.2656982412        4.8087212316  MEMB      60              0.0000000000
      6759        60  CHL1      H23B          -12.4804617596       30.8623050395        4.5067639155  MEMB      60              0.0000000000
      6760        60  CHL1      C24           -11.3658396194       29.2301691162        3.8674147442  MEMB      60              0.0000000000
      6761        60  CHL1      H24A          -10.4456458951       29.8589894826        3.8101606180  MEMB      60              0.0000000000
      6762        60  CHL1      H24B          -11.0761528112       28.1636915380        4.0469094631  MEMB      60              0.0000000000
      6763        60  CHL1      C25           -12.0543811675       29.2731432128        2.5560137859  MEMB      60              0.0000000000
      6764        60  CHL1      H25           -11.1559506874       28.8939347819        1.9991397780  MEMB      60              0.0000000000
      6765        60  CHL1      C26           -13.2588606822       28.2445246149        2.4617950949  MEMB      60              0.0000000000
      6766        60  CHL1      H26A          -14.0895044619       28.4322741786        3.1332359800  MEMB      60              0.0000000000
      6767        60  CHL1      H26B          -13.8924310410       28.2768017264        1.5458045250  MEMB      60              0.0000000000
      6768        60  CHL1      H26C          -12.8401548762       27.2108773402        2.3997527717  MEMB      60              0.0000000000
      6769        60  CHL1      C27           -12.3114808309       30.7046719118        1.9588618900  MEMB      60              0.0000000000
      6770        60  CHL1      H27A          -11.3850235841       31.2868346917        2.1036948702  MEMB      60              0.0000000000
      6771        60  CHL1      H27B          -12.4182993951       30.7321996699        0.8473091787  MEMB      60              0.0000000000
      6772        60  CHL1      H27C          -13.1746309576       31.2491275158        2.3326916371  MEMB      60              0.0000000000
      6773        61  CHL1      C3            -19.7262304664       26.5220783206       17.3391686791  MEMB      61              0.0000000000
      6774        61  CHL1      H3            -20.6056559159       27.2070330083       17.2509296522  MEMB      61              0.0000000000
      6775        61  CHL1      O3            -19.5585813671       26.1353206690       18.6986845933  MEMB      61              0.0000000000
      6776        61  CHL1      H3'           -20.1133309003       25.3511485347       18.8236263509  MEMB      61              0.0000000000
      6777        61  CHL1      C4            -19.9700575900       25.2591388997       16.4941041625  MEMB      61              0.0000000000
      6778        61  CHL1      H4A           -19.1641065305       24.5429050134       16.7576410733  MEMB      61              0.0000000000
      6779        61  CHL1      H4B           -20.9350534388       24.8316613030       16.8331891545  MEMB      61              0.0000000000
      6780        61  CHL1      C5            -19.9891658219       25.4502121297       14.9961224094  MEMB      61              0.0000000000
      6781        61  CHL1      C6            -20.9651863234       24.9429766602       14.2145098785  MEMB      61              0.0000000000
      6782        61  CHL1      H6            -21.7564733797       24.3175659823       14.6624449432  MEMB      61              0.0000000000
      6783        61  CHL1      C7            -20.9862223769       25.1082143210       12.7209872281  MEMB      61              0.0000000000
      6784        61  CHL1      H7A           -21.2349832136       24.1627526847       12.1833431105  MEMB      61              0.0000000000
      6785        61  CHL1      H7B           -21.7376134551       25.8830612653       12.4412067844  MEMB      61              0.0000000000
      6786        61  CHL1      C8            -19.6500283261       25.6322058463       12.1550720441  MEMB      61              0.0000000000
      6787        61  CHL1      H8            -18.9143258745       24.8011455358       12.1344218212  MEMB      61              0.0000000000
      6788        61  CHL1      C14           -19.9384184361       26.2465712533       10.7911205460  MEMB      61              0.0000000000
      6789        61  CHL1      H14           -20.5059344773       27.1833234409       11.0367562790  MEMB      61              0.0000000000
      6790        61  CHL1      C15           -20.8871242885       25.5295033752        9.7943931737  MEMB      61              0.0000000000
      6791        61  CHL1      H15A          -20.6853537501       24.4403967639        9.7776604335  MEMB      61              0.0000000000
      6792        61  CHL1      H15B          -21.9589570605       25.7194847934       10.0228609318  MEMB      61              0.0000000000
      6793        61  CHL1      C16           -20.5285200091       26.1335645009        8.4361037121  MEMB      61              0.0000000000
      6794        61  CHL1      H16A          -20.1267933155       25.3225409256        7.7886203630  MEMB      61              0.0000000000
      6795        61  CHL1      H16B          -21.3995841697       26.5773984597        7.9119075953  MEMB      61              0.0000000000
      6796        61  CHL1      C17           -19.4247977387       27.1977415957        8.7294383222  MEMB      61              0.0000000000
      6797        61  CHL1      H17           -19.9740411215       28.1244532151        9.0283946940  MEMB      61              0.0000000000
      6798        61  CHL1      C13           -18.7087720178       26.7091147480       10.0227068812  MEMB      61              0.0000000000
      6799        61  CHL1      C18           -17.8136984157       25.4686381404        9.7480039171  MEMB      61              0.0000000000
      6800        61  CHL1      H18A          -16.8482236681       25.7223919049        9.2703817444  MEMB      61              0.0000000000
      6801        61  CHL1      H18B          -17.5653927734       24.8916270341       10.6612868031  MEMB      61              0.0000000000
      6802        61  CHL1      H18C          -18.3749423616       24.7863195385        9.0868787818  MEMB      61              0.0000000000
      6803        61  CHL1      C12           -18.0201639717       27.7928809499       10.8762505415  MEMB      61              0.0000000000
      6804        61  CHL1      H12A          -17.0764808865       28.1506144180       10.4208975991  MEMB      61              0.0000000000
      6805        61  CHL1      H12B          -18.7286155885       28.6512155264       10.8890905173  MEMB      61              0.0000000000
      6806        61  CHL1      C11           -17.7605791733       27.3237976758       12.3271547118  MEMB      61              0.0000000000
      6807        61  CHL1      H11A          -16.9401082479       26.5736747808       12.3248453037  MEMB      61              0.0000000000
      6808        61  CHL1      H11B          -17.3921098992       28.1896895261       12.9099493753  MEMB      61              0.0000000000
      6809        61  CHL1      C9            -19.0264822588       26.7270176067       13.0189177550  MEMB      61              0.0000000000
      6810        61  CHL1      H9            -19.7979389159       27.5330642601       13.0613721049  MEMB      61              0.0000000000
      6811        61  CHL1      C10           -18.8214190268       26.3133030651       14.4890833957  MEMB      61              0.0000000000
      6812        61  CHL1      C19           -17.5625416412       25.4125352562       14.5968328482  MEMB      61              0.0000000000
      6813        61  CHL1      H19A          -17.3975080709       25.0814099172       15.6407815822  MEMB      61              0.0000000000
      6814        61  CHL1      H19B          -17.6613427810       24.5279276125       13.9321779775  MEMB      61              0.0000000000
      6815        61  CHL1      H19C          -16.6331059674       25.9448132807       14.3288490290  MEMB      61              0.0000000000
      6816        61  CHL1      C1            -18.6252422215       27.5949194535       15.3610905203  MEMB      61              0.0000000000
      6817        61  CHL1      H1A           -17.7142640670       28.1051940822       14.9945631961  MEMB      61              0.0000000000
      6818        61  CHL1      H1B           -19.4591662855       28.3203175002       15.2310984672  MEMB      61              0.0000000000
      6819        61  CHL1      C2            -18.5010145198       27.3106693513       16.8672511667  MEMB      61              0.0000000000
      6820        61  CHL1      H2A           -18.4998129616       28.2517154955       17.4574429590  MEMB      61              0.0000000000
      6821        61  CHL1      H2B           -17.5444722426       26.7877467152       17.0782271989  MEMB      61              0.0000000000
      6822        61  CHL1      C20           -18.6202145779       27.5384754755        7.4722094202  MEMB      61              0.0000000000
      6823        61  CHL1      H20           -18.0013626852       26.6497198419        7.2224999393  MEMB      61              0.0000000000
      6824        61  CHL1      C21           -17.7201109591       28.7656475940        7.6916987331  MEMB      61              0.0000000000
      6825        61  CHL1      H21A          -16.8820484259       28.5685997832        8.3862173464  MEMB      61              0.0000000000
      6826        61  CHL1      H21B          -18.3314880521       29.6208174624        8.0562651260  MEMB      61              0.0000000000
      6827        61  CHL1      H21C          -17.2858151795       29.0505960358        6.7111725835  MEMB      61              0.0000000000
      6828        61  CHL1      C22           -19.5330830047       27.8719709122        6.2531832773  MEMB      61              0.0000000000
      6829        61  CHL1      H22A          -20.3539208413       27.1315483531        6.1643921089  MEMB      61              0.0000000000
      6830        61  CHL1      H22B          -19.9948500627       28.8643563219        6.4558840772  MEMB      61              0.0000000000
      6831        61  CHL1      C23           -18.8171362440       27.8748129530        4.8797416304  MEMB      61              0.0000000000
      6832        61  CHL1      H23A          -18.3673392366       28.8613241806        4.6410156139  MEMB      61              0.0000000000
      6833        61  CHL1      H23B          -17.9822432146       27.1476124459        4.9474132216  MEMB      61              0.0000000000
      6834        61  CHL1      C24           -19.7351604994       27.3950089828        3.7354476834  MEMB      61              0.0000000000
      6835        61  CHL1      H24A          -20.0339648806       26.3585107913        4.0021010254  MEMB      61              0.0000000000
      6836        61  CHL1      H24B          -20.6510017594       28.0217562400        3.7037566369  MEMB      61              0.0000000000
      6837        61  CHL1      C25           -19.1203278557       27.4497506828        2.3126082703  MEMB      61              0.0000000000
      6838        61  CHL1      H25           -18.2287800437       26.7709945752        2.2827461137  MEMB      61              0.0000000000
      6839        61  CHL1      C26           -20.1064905622       26.9983926740        1.2358471271  MEMB      61              0.0000000000
      6840        61  CHL1      H26A          -20.1713386092       25.9805174532        1.4608852367  MEMB      61              0.0000000000
      6841        61  CHL1      H26B          -21.1137551336       27.4506257629        1.3182077078  MEMB      61              0.0000000000
      6842        61  CHL1      H26C          -19.7924840874       26.8574251683        0.1890185935  MEMB      61              0.0000000000
      6843        61  CHL1      C27           -18.7784815116       28.8717784836        1.9377425412  MEMB      61              0.0000000000
      6844        61  CHL1      H27A          -18.4124283506       28.8786087370        0.9191590236  MEMB      61              0.0000000000
      6845        61  CHL1      H27B          -19.6869726538       29.5134839362        1.9851719082  MEMB      61              0.0000000000
      6846        61  CHL1      H27C          -17.9363539234       29.2981707728        2.4908343110  MEMB      61              0.0000000000
      6847        62  CHL1      C3             14.9220103023       29.3709481749       17.3841973166  MEMB      62              0.0000000000
      6848        62  CHL1      H3             15.2954096049       30.3563686864       16.9763406605  MEMB      62              0.0000000000
      6849        62  CHL1      O3             14.8924269452       29.3507161428       18.7897365293  MEMB      62              0.0000000000
      6850        62  CHL1      H3'            15.7997554258       29.1323250188       18.9890454316  MEMB      62              0.0000000000
      6851        62  CHL1      C4             13.5431709915       29.1108747142       16.9478757304  MEMB      62              0.0000000000
      6852        62  CHL1      H4A            12.8877700745       28.3470757267       17.3630961501  MEMB      62              0.0000000000
      6853        62  CHL1      H4B            13.0479903934       30.0212313704       17.3367868557  MEMB      62              0.0000000000
      6854        62  CHL1      C5             13.6965372619       28.9373523986       15.4213624597  MEMB      62              0.0000000000
      6855        62  CHL1      C6             13.3077801760       29.7745923661       14.6319608986  MEMB      62              0.0000000000
      6856        62  CHL1      H6             12.8243585528       30.1417922020       15.4900985354  MEMB      62              0.0000000000
      6857        62  CHL1      C7             12.8856849923       29.8735743732       13.1212227349  MEMB      62              0.0000000000
      6858        62  CHL1      H7A            11.8336116145       29.7137692464       12.7554911441  MEMB      62              0.0000000000
      6859        62  CHL1      H7B            13.0285613566       30.8541499512       12.6299994413  MEMB      62              0.0000000000
      6860        62  CHL1      C8             13.0060387197       28.5658799934       12.4640687778  MEMB      62              0.0000000000
      6861        62  CHL1      H8             12.1578724840       27.8574728360       12.6424575463  MEMB      62              0.0000000000
      6862        62  CHL1      C14            13.0817988369       28.8473036278       10.9865707883  MEMB      62              0.0000000000
      6863        62  CHL1      H14            13.7858502599       29.6936255664       10.8743216177  MEMB      62              0.0000000000
      6864        62  CHL1      C15            11.8714633806       29.2464189634       10.1249914010  MEMB      62              0.0000000000
      6865        62  CHL1      H15A           10.9369867170       28.6865636548       10.3612258876  MEMB      62              0.0000000000
      6866        62  CHL1      H15B           11.7008912292       30.3334392377       10.1428384080  MEMB      62              0.0000000000
      6867        62  CHL1      C16            12.3859540561       28.9597645624        8.7112880319  MEMB      62              0.0000000000
      6868        62  CHL1      H16A           11.5782731795       28.4190507797        8.1812809884  MEMB      62              0.0000000000
      6869        62  CHL1      H16B           12.6392757289       29.9261332268        8.2293333925  MEMB      62              0.0000000000
      6870        62  CHL1      C17            13.7047131213       28.1410549890        8.8484818298  MEMB      62              0.0000000000
      6871        62  CHL1      H17            14.5603558199       28.8415839844        8.8082493700  MEMB      62              0.0000000000
      6872        62  CHL1      C13            13.6757517660       27.7128928451       10.2956520312  MEMB      62              0.0000000000
      6873        62  CHL1      C18            12.6613964390       26.6638138685       10.3164491017  MEMB      62              0.0000000000
      6874        62  CHL1      H18A           11.7983981095       26.6178839104        9.6219027096  MEMB      62              0.0000000000
      6875        62  CHL1      H18B           13.4359258682       25.9922561039        9.9265166218  MEMB      62              0.0000000000
      6876        62  CHL1      H18C           12.3494498780       26.3222400391       11.3053184746  MEMB      62              0.0000000000
      6877        62  CHL1      C12            14.9987869360       27.2747354327       10.9603427065  MEMB      62              0.0000000000
      6878        62  CHL1      H12A           15.4023222177       26.3072693454       10.6160886761  MEMB      62              0.0000000000
      6879        62  CHL1      H12B           15.7080274303       28.0899104256       10.7371815637  MEMB      62              0.0000000000
      6880        62  CHL1      C11            14.9215282537       27.0730256718       12.4513967291  MEMB      62              0.0000000000
      6881        62  CHL1      H11A           14.3068604880       26.2250689338       12.7474450790  MEMB      62              0.0000000000
      6882        62  CHL1      H11B           15.9227979028       27.0133634987       12.9049325151  MEMB      62              0.0000000000
      6883        62  CHL1      C9             14.3048504909       28.1884315667       13.1114922248  MEMB      62              0.0000000000
      6884        62  CHL1      H9             14.9252990108       29.1130180054       12.8995984866  MEMB      62              0.0000000000
      6885        62  CHL1      C10            14.3338671389       27.9645245484       14.6803284741  MEMB      62              0.0000000000
      6886        62  CHL1      C19            13.7303973688       26.6703620295       15.1627948699  MEMB      62              0.0000000000
      6887        62  CHL1      H19A           13.4995875176       26.6438793145       16.2474878110  MEMB      62              0.0000000000
      6888        62  CHL1      H19B           12.8219877936       26.4123604029       14.6513889373  MEMB      62              0.0000000000
      6889        62  CHL1      H19C           14.3992855208       25.8547074905       14.9034479019  MEMB      62              0.0000000000
      6890        62  CHL1      C1             15.7000800826       28.2812807248       15.2684472837  MEMB      62              0.0000000000
      6891        62  CHL1      H1A            16.3527133897       27.4916535351       14.8847337381  MEMB      62              0.0000000000
      6892        62  CHL1      H1B            16.0377175579       29.2828451146       14.8765730268  MEMB      62              0.0000000000
      6893        62  CHL1      C2             15.7496574176       28.2397295402       16.8156497853  MEMB      62              0.0000000000
      6894        62  CHL1      H2A            16.7817637843       28.3182852831       17.1552355667  MEMB      62              0.0000000000
      6895        62  CHL1      H2B            15.2783924919       27.2913704467       17.1608430942  MEMB      62              0.0000000000
      6896        62  CHL1      C20            13.9190690328       27.1137224056        7.7236903882  MEMB      62              0.0000000000
      6897        62  CHL1      H20            13.0244020039       26.4421242877        7.6545218297  MEMB      62              0.0000000000
      6898        62  CHL1      C21            15.1744393894       26.2542853983        7.9610915415  MEMB      62              0.0000000000
      6899        62  CHL1      H21A           15.0353111493       25.5782199443        8.8245143227  MEMB      62              0.0000000000
      6900        62  CHL1      H21B           16.0808809070       26.7740293490        8.2626548429  MEMB      62              0.0000000000
      6901        62  CHL1      H21C           15.3509237478       25.6030913609        7.0721463403  MEMB      62              0.0000000000
      6902        62  CHL1      C22            13.9566252912       27.7929056466        6.3443500164  MEMB      62              0.0000000000
      6903        62  CHL1      H22A           12.9665507901       28.2899942239        6.2816250984  MEMB      62              0.0000000000
      6904        62  CHL1      H22B           14.7544032833       28.5623797594        6.2536485664  MEMB      62              0.0000000000
      6905        62  CHL1      C23            13.9903189776       26.8172064098        5.1678118798  MEMB      62              0.0000000000
      6906        62  CHL1      H23A           14.8749541000       26.1517531202        5.1875473924  MEMB      62              0.0000000000
      6907        62  CHL1      H23B           13.0733648814       26.1812357473        5.2040722087  MEMB      62              0.0000000000
      6908        62  CHL1      C24            14.0699306691       27.5263674436        3.8320906787  MEMB      62              0.0000000000
      6909        62  CHL1      H24A           13.1631354606       28.1599805683        3.7100231877  MEMB      62              0.0000000000
      6910        62  CHL1      H24B           14.9363997099       28.2312522475        3.8160799430  MEMB      62              0.0000000000
      6911        62  CHL1      C25            14.2902389091       26.5062683926        2.6985782702  MEMB      62              0.0000000000
      6912        62  CHL1      H25            15.3782906591       26.3929864104        2.4962234936  MEMB      62              0.0000000000
      6913        62  CHL1      C26            13.7122731379       25.1247715700        2.8158333749  MEMB      62              0.0000000000
      6914        62  CHL1      H26A           13.9775922385       24.5331733667        3.6790023260  MEMB      62              0.0000000000
      6915        62  CHL1      H26B           12.6605052160       25.2911007240        3.0056708672  MEMB      62              0.0000000000
      6916        62  CHL1      H26C           13.8591707921       24.5562450108        1.8605241065  MEMB      62              0.0000000000
      6917        62  CHL1      C27            13.6389294137       26.9914185154        1.4818360072  MEMB      62              0.0000000000
      6918        62  CHL1      H27A           13.9353258295       26.4163314371        0.5835938040  MEMB      62              0.0000000000
      6919        62  CHL1      H27B           12.6229767683       27.4175724358        1.4356509231  MEMB      62              0.0000000000
      6920        62  CHL1      H27C           13.8781684378       27.9826645806        1.4813654174  MEMB      62              0.0000000000
      6921        63  SAPI      C12            19.6047145923       25.0696271891       23.3427070653  MEMB      63              0.0000000000
      6922        63  SAPI      H2             19.3781833521       24.1173834265       22.8031238960  MEMB      63              0.0000000000
      6923        63  SAPI      O2             18.8211781845       26.1086781360       22.7536770379  MEMB      63              0.0000000000
      6924        63  SAPI      HO2            19.2022259874       26.9662095112       22.9852100056  MEMB      63              0.0000000000
      6925        63  SAPI      C13            19.2139173176       24.8470537064       24.8004569905  MEMB      63              0.0000000000
      6926        63  SAPI      H3             19.7052281421       23.9287700005       25.1753259671  MEMB      63              0.0000000000
      6927        63  SAPI      O3             17.8124785796       24.5920990647       24.8719269805  MEMB      63              0.0000000000
      6928        63  SAPI      HO3            17.6014892995       24.2345308904       24.0056019270  MEMB      63              0.0000000000
      6929        63  SAPI      C14            19.6225509557       26.0232708247       25.6733860064  MEMB      63              0.0000000000
      6930        63  SAPI      H4             19.0558679263       26.9312017584       25.3623930443  MEMB      63              0.0000000000
      6931        63  SAPI      O4             19.2863249689       25.7601350989       27.0398709974  MEMB      63              0.0000000000
      6932        63  SAPI      HO4            19.2953943222       26.6105619310       27.4830786147  MEMB      63              0.0000000000
      6933        63  SAPI      C15            21.1234945255       26.2761187434       25.5459994502  MEMB      63              0.0000000000
      6934        63  SAPI      H5             21.6586016163       25.3581532087       25.8913449989  MEMB      63              0.0000000000
      6935        63  SAPI      O5             21.5462581356       27.3636102914       26.3834814853  MEMB      63              0.0000000000
      6936        63  SAPI      HO5            22.5081562047       27.3898506463       26.4245697359  MEMB      63              0.0000000000
      6937        63  SAPI      C16            21.4685157397       26.5176978054       24.0788702096  MEMB      63              0.0000000000
      6938        63  SAPI      H6             20.8789733236       27.3874770129       23.7270636210  MEMB      63              0.0000000000
      6939        63  SAPI      O6             22.8255654991       26.8904410322       23.8962844466  MEMB      63              0.0000000000
      6940        63  SAPI      HO6            22.7953878888       27.2892684347       23.0104210427  MEMB      63              0.0000000000
      6941        63  SAPI      C11            21.1014643301       25.3188892180       23.2234222525  MEMB      63              0.0000000000
      6942        63  SAPI      H1             21.6028876363       24.4149919290       23.6671635868  MEMB      63              0.0000000000
      6943        63  SAPI      P              22.2090766829       24.3106382645       21.0232287245  MEMB      63              0.0000000000
      6944        63  SAPI      O13            21.2314836629       23.1869519494       21.0237043757  MEMB      63              0.0000000000
      6945        63  SAPI      O14            23.4988463229       24.0001169432       21.6816642488  MEMB      63              0.0000000000
      6946        63  SAPI      O12            21.4800063290       25.5473608115       21.8441494352  MEMB      63              0.0000000000
      6947        63  SAPI      O11            22.4911727538       24.8223500099       19.5520532605  MEMB      63              0.0000000000
      6948        63  SAPI      C1             22.1779934540       26.1342813000       19.0708899474  MEMB      63              0.0000000000
      6949        63  SAPI      HA             22.2399565020       26.9252492022       19.8539375614  MEMB      63              0.0000000000
      6950        63  SAPI      HB             22.9271720100       26.4400611142       18.3060169118  MEMB      63              0.0000000000
      6951        63  SAPI      C2             20.8390018894       26.1191757128       18.3087253755  MEMB      63              0.0000000000
      6952        63  SAPI      HS             20.0211327760       25.8883216470       19.0303364325  MEMB      63              0.0000000000
      6953        63  SAPI      O21            20.9405865630       25.1092270115       17.2981005624  MEMB      63              0.0000000000
      6954        63  SAPI      C21            19.7992231335       24.6986227063       16.8710823743  MEMB      63              0.0000000000
      6955        63  SAPI      O22            18.6911097608       24.9871313792       17.2993759157  MEMB      63              0.0000000000
      6956        63  SAPI      C22            20.0521556693       23.9090926496       15.6706020447  MEMB      63              0.0000000000
      6957        63  SAPI      H2R            20.8583457387       24.3425711244       15.0256854912  MEMB      63              0.0000000000
      6958        63  SAPI      H2S            20.2896885721       22.8440590993       15.8679842262  MEMB      63              0.0000000000
      6959        63  SAPI      C3             20.5271492496       27.4659717727       17.6148276140  MEMB      63              0.0000000000
      6960        63  SAPI      HX             20.3660934178       28.2404136480       18.3877410976  MEMB      63              0.0000000000
      6961        63  SAPI      HY             19.5784164977       27.3270394388       17.0477814615  MEMB      63              0.0000000000
      6962        63  SAPI      O31            21.6329597585       27.8462808187       16.7844929240  MEMB      63              0.0000000000
      6963        63  SAPI      C31            21.4109018521       27.8736651758       15.4800131766  MEMB      63              0.0000000000
      6964        63  SAPI      O32            20.3185146125       27.8928851957       14.9393571360  MEMB      63              0.0000000000
      6965        63  SAPI      C32            22.7412801172       27.8333895856       14.7286323513  MEMB      63              0.0000000000
      6966        63  SAPI      H2X            23.2260663797       26.8741264385       14.6569475144  MEMB      63              0.0000000000
      6967        63  SAPI      H2Y            23.3888961881       28.3396658561       15.4779540507  MEMB      63              0.0000000000
      6968        63  SAPI      C23            18.8010333941       24.0743923910       14.9016061808  MEMB      63              0.0000000000
      6969        63  SAPI      H3R            18.6108031936       25.1849834404       14.7474747441  MEMB      63              0.0000000000
      6970        63  SAPI      H3S            17.8732139467       23.5886417128       15.3337373323  MEMB      63              0.0000000000
      6971        63  SAPI      C24            19.2710968290       23.2995650292       13.7693542478  MEMB      63              0.0000000000
      6972        63  SAPI      H4R            19.1417678046       22.2285348913       14.1798112227  MEMB      63              0.0000000000
      6973        63  SAPI      H4S            20.2535157992       23.3116260187       13.2891826194  MEMB      63              0.0000000000
      6974        63  SAPI      C25            18.2947525250       24.0164090853       12.9064650047  MEMB      63              0.0000000000
      6975        63  SAPI      H5R            17.3523655225       23.4299102356       13.0687146250  MEMB      63              0.0000000000
      6976        63  SAPI      C26            18.5345560531       24.7201718440       11.7576657731  MEMB      63              0.0000000000
      6977        63  SAPI      H6R            17.7029240973       24.8997837908       11.0355260077  MEMB      63              0.0000000000
      6978        63  SAPI      C27            19.8237548997       24.9790170104       11.0116619184  MEMB      63              0.0000000000
      6979        63  SAPI      H7R            19.8074235864       24.9535448622        9.8767276855  MEMB      63              0.0000000000
      6980        63  SAPI      H7S            20.6151867318       24.2855808329       11.3384787685  MEMB      63              0.0000000000
      6981        63  SAPI      C28            19.7130326178       26.3347457586       11.5132327157  MEMB      63              0.0000000000
      6982        63  SAPI      H8R            19.7558770995       26.4187910933       12.6113604045  MEMB      63              0.0000000000
      6983        63  SAPI      C29            19.4717221306       27.3935413645       10.7592430459  MEMB      63              0.0000000000
      6984        63  SAPI      H9R            19.2842272315       28.2788061959       11.3549524466  MEMB      63              0.0000000000
      6985        63  SAPI      C210           19.2733214396       27.4906580952        9.2654448236  MEMB      63              0.0000000000
      6986        63  SAPI      H10R           18.2850205226       27.9582132279        9.1130999692  MEMB      63              0.0000000000
      6987        63  SAPI      H10S           19.2372611453       26.5149036845        8.7174917495  MEMB      63              0.0000000000
      6988        63  SAPI      C211           20.3855718473       28.3789324480        8.7586022699  MEMB      63              0.0000000000
      6989        63  SAPI      H11R           20.6539644242       29.2345351653        9.3989908170  MEMB      63              0.0000000000
      6990        63  SAPI      C212           20.9527605440       28.3312094551        7.5462170573  MEMB      63              0.0000000000
      6991        63  SAPI      H12R           21.8176805878       28.9807869146        7.3338603511  MEMB      63              0.0000000000
      6992        63  SAPI      C213           20.5878924222       27.3864758433        6.4439492637  MEMB      63              0.0000000000
      6993        63  SAPI      H13R           20.6127408388       27.9457011478        5.4909113107  MEMB      63              0.0000000000
      6994        63  SAPI      H13S           19.5286384181       27.0598733260        6.5352074751  MEMB      63              0.0000000000
      6995        63  SAPI      C214           21.5172244781       26.2107941318        6.4009868634  MEMB      63              0.0000000000
      6996        63  SAPI      H14R           21.4076820566       25.5228616558        7.2584769568  MEMB      63              0.0000000000
      6997        63  SAPI      C215           22.4270716934       25.9597219206        5.4333539304  MEMB      63              0.0000000000
      6998        63  SAPI      H15R           23.0760412229       25.0741875592        5.5164834285  MEMB      63              0.0000000000
      6999        63  SAPI      C216           22.6959511937       26.8047495388        4.2133140713  MEMB      63              0.0000000000
      7000        63  SAPI      H16R           23.7918520607       26.8303485892        4.0388393193  MEMB      63              0.0000000000
      7001        63  SAPI      H16S           22.4139026856       27.8621831450        4.4024516704  MEMB      63              0.0000000000
      7002        63  SAPI      C217           22.0485834691       26.2685158409        2.9212517670  MEMB      63              0.0000000000
      7003        63  SAPI      H17R           20.9756158235       26.0170849281        3.0754371797  MEMB      63              0.0000000000
      7004        63  SAPI      H17S           22.5502638378       25.3141322578        2.6378836118  MEMB      63              0.0000000000
      7005        63  SAPI      C218           22.1687858364       27.2047840083        1.7096083132  MEMB      63              0.0000000000
      7006        63  SAPI      H18R           21.5882575606       26.7080334307        0.9139315367  MEMB      63              0.0000000000
      7007        63  SAPI      H18S           23.2303626626       27.2772864466        1.3749818903  MEMB      63              0.0000000000
      7008        63  SAPI      C219           21.6418104171       28.6339898631        1.8904758258  MEMB      63              0.0000000000
      7009        63  SAPI      H19R           21.8092729308       29.2007196872        0.9589872464  MEMB      63              0.0000000000
      7010        63  SAPI      H19S           22.2145210165       29.1203135392        2.7017673389  MEMB      63              0.0000000000
      7011        63  SAPI      C220           20.1707716392       28.8289928751        2.1722385043  MEMB      63              0.0000000000
      7012        63  SAPI      H20R           19.8041657776       28.1012155230        2.9218632633  MEMB      63              0.0000000000
      7013        63  SAPI      H20S           19.6030023612       28.7488238637        1.2482571448  MEMB      63              0.0000000000
      7014        63  SAPI      H20T           19.9710055752       29.8777790321        2.4493041801  MEMB      63              0.0000000000
      7015        63  SAPI      C33            22.6340954624       28.2416394198       13.2082844801  MEMB      63              0.0000000000
      7016        63  SAPI      H3X            21.7155329761       28.8996378227       13.2778197284  MEMB      63              0.0000000000
      7017        63  SAPI      H3Y            21.9277928032       27.8507484218       12.5026263470  MEMB      63              0.0000000000
      7018        63  SAPI      C34            23.9704774920       28.7977610158       12.4550377148  MEMB      63              0.0000000000
      7019        63  SAPI      H4X            24.9610843832       28.4923450685       12.8657164557  MEMB      63              0.0000000000
      7020        63  SAPI      H4Y            24.2370986459       29.8305327522       12.5266797425  MEMB      63              0.0000000000
      7021        63  SAPI      C35            23.8519566835       29.5434132259       11.1379855569  MEMB      63              0.0000000000
      7022        63  SAPI      H5X            24.6514051055       30.2323979095       10.8654409346  MEMB      63              0.0000000000
      7023        63  SAPI      H5Y            23.2251160479       30.4330019471       10.9924205722  MEMB      63              0.0000000000
      7024        63  SAPI      C36            23.5529647049       28.4046731249       10.3237893518  MEMB      63              0.0000000000
      7025        63  SAPI      H6X            23.4563007623       28.7074990014        9.2873502174  MEMB      63              0.0000000000
      7026        63  SAPI      H6Y            22.5514664653       28.1323465932       10.7081075996  MEMB      63              0.0000000000
      7027        63  SAPI      C37            24.5838015209       27.2951938682       10.5041780783  MEMB      63              0.0000000000
      7028        63  SAPI      H7X            24.8760568160       26.9876606995       11.5266684828  MEMB      63              0.0000000000
      7029        63  SAPI      H7Y            25.5269382286       27.6715695290       10.0566647803  MEMB      63              0.0000000000
      7030        63  SAPI      C38            23.9704724480       26.0557718029        9.9003944837  MEMB      63              0.0000000000
      7031        63  SAPI      H8X            23.8287315621       26.2095698468        8.8531493190  MEMB      63              0.0000000000
      7032        63  SAPI      H8Y            22.8971132560       25.9866594461       10.1360042385  MEMB      63              0.0000000000
      7033        63  SAPI      C39            24.6535050143       24.7481624492       10.2584183685  MEMB      63              0.0000000000
      7034        63  SAPI      H9X            24.4704306472       24.5887514271       11.3436752005  MEMB      63              0.0000000000
      7035        63  SAPI      H9Y            25.7598763363       24.8035863824       10.1475880113  MEMB      63              0.0000000000
      7036        63  SAPI      C310           24.0007576910       23.5772108364        9.5034929885  MEMB      63              0.0000000000
      7037        63  SAPI      H10X           22.9045119145       23.5671284379        9.6641460052  MEMB      63              0.0000000000
      7038        63  SAPI      H10Y           24.3519626568       22.6434602560        9.9326362611  MEMB      63              0.0000000000
      7039        63  SAPI      C311           24.3086114251       23.5084628523        8.0060830864  MEMB      63              0.0000000000
      7040        63  SAPI      H11X           25.3932461741       23.3308066288        7.8786701160  MEMB      63              0.0000000000
      7041        63  SAPI      H11Y           23.9859762762       24.4706106112        7.5668883909  MEMB      63              0.0000000000
      7042        63  SAPI      C312           23.5534990955       22.4363769521        7.2565571579  MEMB      63              0.0000000000
      7043        63  SAPI      H12X           23.5866299905       21.4930686625        7.8477383890  MEMB      63              0.0000000000
      7044        63  SAPI      H12Y           23.9203628557       22.2347127641        6.2220847752  MEMB      63              0.0000000000
      7045        63  SAPI      C313           22.1091397163       22.8208523949        7.1612649795  MEMB      63              0.0000000000
      7046        63  SAPI      H13X           21.8327329786       23.7927792477        6.7652915326  MEMB      63              0.0000000000
      7047        63  SAPI      H13Y           21.7492126413       22.6351289179        8.1977850612  MEMB      63              0.0000000000
      7048        63  SAPI      C314           21.4660798382       21.9358530263        6.1825701927  MEMB      63              0.0000000000
      7049        63  SAPI      H14X           20.4859103993       21.5837353880        6.3911518986  MEMB      63              0.0000000000
      7050        63  SAPI      H14Y           22.0084911810       21.0402176646        6.3966625229  MEMB      63              0.0000000000
      7051        63  SAPI      C315           21.2774802317       22.4228137227        4.7607534891  MEMB      63              0.0000000000
      7052        63  SAPI      H15X           22.1264814364       22.8751707549        4.3089784483  MEMB      63              0.0000000000
      7053        63  SAPI      H15Y           20.4938652245       23.2098412390        4.9687049225  MEMB      63              0.0000000000
      7054        63  SAPI      C316           20.9197593128       21.3658425748        3.6791299599  MEMB      63              0.0000000000
      7055        63  SAPI      H16X           20.4918147247       21.7488905181        2.7446818155  MEMB      63              0.0000000000
      7056        63  SAPI      H16Y           20.1227037867       20.8881339308        4.2038728857  MEMB      63              0.0000000000
      7057        63  SAPI      C317           21.9134915565       20.5315085347        2.8702291222  MEMB      63              0.0000000000
      7058        63  SAPI      H17X           22.6395170699       20.1976731836        3.5966956647  MEMB      63              0.0000000000
      7059        63  SAPI      H17Y           22.3244035525       21.3411503593        2.2773555203  MEMB      63              0.0000000000
      7060        63  SAPI      C318           21.4769039106       19.2979578111        1.9884329118  MEMB      63              0.0000000000
      7061        63  SAPI      H18X           22.0990977890       19.0279965275        1.1446178452  MEMB      63              0.0000000000
      7062        63  SAPI      H18Y           20.5299178990       19.5545859331        1.4441320319  MEMB      63              0.0000000000
      7063        63  SAPI      H18Z           21.2536076028       18.3737830049        2.5211451688  MEMB      63              0.0000000000
      7064        64  CHL1      C3            -31.1254265162      -12.8887706447       17.2790203317  MEMB      64              0.0000000000
      7065        64  CHL1      H3            -31.4320058097      -11.8696701619       16.9267180581  MEMB      64              0.0000000000
      7066        64  CHL1      O3            -30.8243292719      -12.8326865029       18.6727168912  MEMB      64              0.0000000000
      7067        64  CHL1      H3'           -29.8583957111      -12.6789932500       18.7598458987  MEMB      64              0.0000000000
      7068        64  CHL1      C4            -32.1906801542      -13.9024827906       16.9709257611  MEMB      64              0.0000000000
      7069        64  CHL1      H4A           -31.8800668399      -14.9202721042       17.2707147307  MEMB      64              0.0000000000
      7070        64  CHL1      H4B           -33.0881790007      -13.6548471041       17.5958961635  MEMB      64              0.0000000000
      7071        64  CHL1      C5            -32.4030136030      -13.9059589862       15.4617112744  MEMB      64              0.0000000000
      7072        64  CHL1      C6            -33.5349687075      -13.5969277777       14.9949597186  MEMB      64              0.0000000000
      7073        64  CHL1      H6            -34.0114695831      -13.1003128167       15.8339181245  MEMB      64              0.0000000000
      7074        64  CHL1      C7            -33.9796766901      -13.4246605405       13.5473340732  MEMB      64              0.0000000000
      7075        64  CHL1      H7A           -35.0757846187      -13.4235979145       13.3639944769  MEMB      64              0.0000000000
      7076        64  CHL1      H7B           -33.7676848823      -12.4313299765       13.2162655092  MEMB      64              0.0000000000
      7077        64  CHL1      C8            -32.9971057873      -13.9088038620       12.5286702133  MEMB      64              0.0000000000
      7078        64  CHL1      H8            -33.2903035557      -14.9622267845       12.4352393339  MEMB      64              0.0000000000
      7079        64  CHL1      C14           -33.0817374354      -13.2309073748       11.1923381658  MEMB      64              0.0000000000
      7080        64  CHL1      H14           -32.7416476550      -12.1900503030       11.1510665393  MEMB      64              0.0000000000
      7081        64  CHL1      C15           -34.4191835867      -13.1720446618       10.6407267522  MEMB      64              0.0000000000
      7082        64  CHL1      H15A          -34.7921567029      -14.1246866470       10.9435139958  MEMB      64              0.0000000000
      7083        64  CHL1      H15B          -35.2050011447      -12.4354751203       10.9840251247  MEMB      64              0.0000000000
      7084        64  CHL1      C16           -33.9111220708      -13.1626020848        9.1992360208  MEMB      64              0.0000000000
      7085        64  CHL1      H16A          -34.4013564464      -13.7592319863        8.5209372591  MEMB      64              0.0000000000
      7086        64  CHL1      H16B          -33.8731099652      -12.3059292863        8.6516813720  MEMB      64              0.0000000000
      7087        64  CHL1      C17           -32.4645564880      -13.1329507178        8.9004700310  MEMB      64              0.0000000000
      7088        64  CHL1      H17           -32.0815220890      -12.0636110656        8.9370108433  MEMB      64              0.0000000000
      7089        64  CHL1      C13           -32.1435821405      -13.8358726688       10.1431800346  MEMB      64              0.0000000000
      7090        64  CHL1      C18           -32.4660342220      -15.3295564183        9.9286193171  MEMB      64              0.0000000000
      7091        64  CHL1      H18A          -31.7959776538      -15.7674646802        9.1689486408  MEMB      64              0.0000000000
      7092        64  CHL1      H18B          -32.3386874607      -15.8773046032       10.8728038312  MEMB      64              0.0000000000
      7093        64  CHL1      H18C          -33.5123309146      -15.4932753280        9.5966069668  MEMB      64              0.0000000000
      7094        64  CHL1      C12           -30.7961557611      -13.4207751376       10.6271993146  MEMB      64              0.0000000000
      7095        64  CHL1      H12A          -30.0066014259      -13.7374563373        9.9450338617  MEMB      64              0.0000000000
      7096        64  CHL1      H12B          -30.8005687587      -12.2979516264       10.6773155177  MEMB      64              0.0000000000
      7097        64  CHL1      C11           -30.5566108118      -14.0349473583       11.9845051023  MEMB      64              0.0000000000
      7098        64  CHL1      H11A          -30.5325732999      -15.1347492274       11.8542677307  MEMB      64              0.0000000000
      7099        64  CHL1      H11B          -29.5918388411      -13.6347586324       12.3315788071  MEMB      64              0.0000000000
      7100        64  CHL1      C9            -31.6017735157      -13.6145475917       13.0156283404  MEMB      64              0.0000000000
      7101        64  CHL1      H9            -31.4690718838      -12.4939113868       12.9931924175  MEMB      64              0.0000000000
      7102        64  CHL1      C10           -31.3240920922      -14.0956686247       14.4646328180  MEMB      64              0.0000000000
      7103        64  CHL1      C19           -31.2726731767      -15.6162986717       14.5227326664  MEMB      64              0.0000000000
      7104        64  CHL1      H19A          -30.5181727821      -15.9897809830       13.8155238068  MEMB      64              0.0000000000
      7105        64  CHL1      H19B          -31.0380549011      -15.9533882818       15.5536286974  MEMB      64              0.0000000000
      7106        64  CHL1      H19C          -32.2501984387      -16.0911983014       14.2731344281  MEMB      64              0.0000000000
      7107        64  CHL1      C1            -30.0812184476      -13.3725500604       14.9908570380  MEMB      64              0.0000000000
      7108        64  CHL1      H1A           -29.1861390416      -13.8428602201       14.5329234558  MEMB      64              0.0000000000
      7109        64  CHL1      H1B           -30.1453393676      -12.3059520427       14.6767016828  MEMB      64              0.0000000000
      7110        64  CHL1      C2            -29.9206882267      -13.3622214472       16.5140565228  MEMB      64              0.0000000000
      7111        64  CHL1      H2A           -29.2118142380      -12.5845164492       16.7654978508  MEMB      64              0.0000000000
      7112        64  CHL1      H2B           -29.5594470655      -14.3634893912       16.8367297269  MEMB      64              0.0000000000
      7113        64  CHL1      C20           -32.1522918988      -13.6783456943        7.4832571645  MEMB      64              0.0000000000
      7114        64  CHL1      H20           -32.6519001388      -14.6636610885        7.3101818669  MEMB      64              0.0000000000
      7115        64  CHL1      C21           -30.6880819939      -13.6308019068        7.4252030853  MEMB      64              0.0000000000
      7116        64  CHL1      H21A          -30.3325371835      -14.3813979226        8.1361803706  MEMB      64              0.0000000000
      7117        64  CHL1      H21B          -30.4049694523      -12.5825440306        7.7025773280  MEMB      64              0.0000000000
      7118        64  CHL1      H21C          -30.3359269396      -13.8232677413        6.3983005133  MEMB      64              0.0000000000
      7119        64  CHL1      C22           -32.4133165230      -12.7370100210        6.3076346428  MEMB      64              0.0000000000
      7120        64  CHL1      H22A          -33.3384994364      -12.5750009488        6.6077363677  MEMB      64              0.0000000000
      7121        64  CHL1      H22B          -32.1803605538      -11.6685787011        6.3764293846  MEMB      64              0.0000000000
      7122        64  CHL1      C23           -32.4284228661      -13.1904919568        4.8612591204  MEMB      64              0.0000000000
      7123        64  CHL1      H23A          -32.5839470795      -12.2531029938        4.2645018429  MEMB      64              0.0000000000
      7124        64  CHL1      H23B          -31.4727451874      -13.6732749116        4.6397064568  MEMB      64              0.0000000000
      7125        64  CHL1      C24           -33.3873522780      -14.1738725843        4.3507828347  MEMB      64              0.0000000000
      7126        64  CHL1      H24A          -33.1701838838      -15.2380459700        4.4786270464  MEMB      64              0.0000000000
      7127        64  CHL1      H24B          -34.3607814392      -14.3186596147        4.8894849808  MEMB      64              0.0000000000
      7128        64  CHL1      C25           -33.5297201351      -13.8432873270        2.7874107144  MEMB      64              0.0000000000
      7129        64  CHL1      H25           -33.9239736929      -12.8596127043        2.5226272185  MEMB      64              0.0000000000
      7130        64  CHL1      C26           -32.5506790122      -14.3066096919        1.7872910010  MEMB      64              0.0000000000
      7131        64  CHL1      H26A          -32.8939384813      -13.7131701389        0.9083228803  MEMB      64              0.0000000000
      7132        64  CHL1      H26B          -31.6333000934      -14.0634137280        2.2541267500  MEMB      64              0.0000000000
      7133        64  CHL1      H26C          -32.4955971563      -15.4162612697        1.4733084316  MEMB      64              0.0000000000
      7134        64  CHL1      C27           -34.1030905039      -14.9054436917        2.1980944574  MEMB      64              0.0000000000
      7135        64  CHL1      H27A          -34.6580743152      -14.7205506925        3.1199629418  MEMB      64              0.0000000000
      7136        64  CHL1      H27B          -34.5534470125      -14.6999472345        1.1959285724  MEMB      64              0.0000000000
      7137        64  CHL1      H27C          -34.9210434734      -15.4034088394        1.6159183156  MEMB      64              0.0000000000
      7138        65  OSM       N              32.7182868244       14.2101568848       22.2961827969  MEMB      65              0.0000000000
      7139        65  OSM       C15            33.5815057469       14.8772221063       23.2793357767  MEMB      65              0.0000000000
      7140        65  OSM       H15A           34.1470203836       14.1227402878       23.8153841547  MEMB      65              0.0000000000
      7141        65  OSM       H15B           33.0050724262       15.4109859530       24.0310613367  MEMB      65              0.0000000000
      7142        65  OSM       H15C           34.2637831392       15.5538764057       22.7881264435  MEMB      65              0.0000000000
      7143        65  OSM       C14            33.5808623281       13.6592961434       21.2090624446  MEMB      65              0.0000000000
      7144        65  OSM       H14A           32.9945559438       12.9519904535       20.6122599297  MEMB      65              0.0000000000
      7145        65  OSM       H14B           34.4387467661       13.1526949349       21.6203348146  MEMB      65              0.0000000000
      7146        65  OSM       H14C           33.9259198584       14.4199554336       20.5265811576  MEMB      65              0.0000000000
      7147        65  OSM       C13            31.9567277912       13.1084236461       22.9755840710  MEMB      65              0.0000000000
      7148        65  OSM       H13A           32.5665677084       12.4125437796       23.5238819958  MEMB      65              0.0000000000
      7149        65  OSM       H13B           31.3604940332       12.5778591664       22.2176881698  MEMB      65              0.0000000000
      7150        65  OSM       H13C           31.1723739653       13.4853451220       23.6230439295  MEMB      65              0.0000000000
      7151        65  OSM       C12            31.7233005704       15.2067736312       21.7464896669  MEMB      65              0.0000000000
      7152        65  OSM       H12A           32.2467609474       16.0780808016       21.3593848335  MEMB      65              0.0000000000
      7153        65  OSM       H12B           31.1403816783       15.5323776551       22.5982920393  MEMB      65              0.0000000000
      7154        65  OSM       C11            30.7058336115       14.7288682236       20.6755603115  MEMB      65              0.0000000000
      7155        65  OSM       H11A           31.2504777667       14.7885865533       19.7070114506  MEMB      65              0.0000000000
      7156        65  OSM       H11B           29.8529315864       15.4569756308       20.6191825773  MEMB      65              0.0000000000
      7157        65  OSM       P              29.3724153161       12.6652632508       19.8071222260  MEMB      65              0.0000000000
      7158        65  OSM       O13            29.3610554932       11.2089965648       20.0564086949  MEMB      65              0.0000000000
      7159        65  OSM       O14            28.0741535892       13.3482790306       19.7096734514  MEMB      65              0.0000000000
      7160        65  OSM       O11            30.2889607815       13.0244258812       18.5247433009  MEMB      65              0.0000000000
      7161        65  OSM       O12            30.2195669389       13.3990930847       20.9317883696  MEMB      65              0.0000000000
      7162        65  OSM       C1S            29.6469893093       13.1955165788       17.2679703323  MEMB      65              0.0000000000
      7163        65  OSM       H1S            28.5729554685       13.3668650954       17.3818046156  MEMB      65              0.0000000000
      7164        65  OSM       H1T            29.6286571341       12.2555374734       16.7404704767  MEMB      65              0.0000000000
      7165        65  OSM       NF             29.5080584894       14.2718186548       15.0574878544  MEMB      65              0.0000000000
      7166        65  OSM       HNF            29.7670533114       13.6653054775       14.3032223155  MEMB      65              0.0000000000
      7167        65  OSM       C2S            30.2858345201       14.2324747249       16.3011990522  MEMB      65              0.0000000000
      7168        65  OSM       H2S            30.2444560517       15.2414312037       16.7303518586  MEMB      65              0.0000000000
      7169        65  OSM       C3S            31.7873976185       13.8816187885       16.0835873582  MEMB      65              0.0000000000
      7170        65  OSM       H3S            32.1002579207       12.8454180998       16.0782456593  MEMB      65              0.0000000000
      7171        65  OSM       O3             32.5987138453       14.4505197069       17.0867718594  MEMB      65              0.0000000000
      7172        65  OSM       HO3            31.9092232766       14.8153892750       17.6550579473  MEMB      65              0.0000000000
      7173        65  OSM       C4S            32.1518366680       14.3894365532       14.7661415908  MEMB      65              0.0000000000
      7174        65  OSM       H4S            32.1931742011       15.4783704832       14.7147009737  MEMB      65              0.0000000000
      7175        65  OSM       C5S            32.3431675500       13.6461840079       13.6766570129  MEMB      65              0.0000000000
      7176        65  OSM       H5S            32.4431871285       12.5684326639       13.5978234057  MEMB      65              0.0000000000
      7177        65  OSM       C6S            32.6831581194       14.2439407553       12.4368667395  MEMB      65              0.0000000000
      7178        65  OSM       H6S            33.6156266730       13.6476327068       12.3221734867  MEMB      65              0.0000000000
      7179        65  OSM       H6T            32.8542745183       15.3256652735       12.6115136302  MEMB      65              0.0000000000
      7180        65  OSM       C7S            31.7425081658       14.2497466717       11.2316108066  MEMB      65              0.0000000000
      7181        65  OSM       H7S            30.8644031830       14.8311861496       11.5193315925  MEMB      65              0.0000000000
      7182        65  OSM       H7T            31.5403152504       13.1955119316       10.9487566260  MEMB      65              0.0000000000
      7183        65  OSM       C8S            32.0996683112       15.0283630205        9.9658214412  MEMB      65              0.0000000000
      7184        65  OSM       H8S            33.0739624513       14.8773001613        9.7867172082  MEMB      65              0.0000000000
      7185        65  OSM       H8T            32.4728142513       16.0348025891       10.0158281168  MEMB      65              0.0000000000
      7186        65  OSM       C9S            31.2618944130       14.6793673117        8.7581407582  MEMB      65              0.0000000000
      7187        65  OSM       H9S            30.3350079884       15.2666545845        8.9133647378  MEMB      65              0.0000000000
      7188        65  OSM       H9T            31.0496921007       13.6034172230        8.6607747677  MEMB      65              0.0000000000
      7189        65  OSM       C10S           31.8397871274       15.0412567592        7.4082472965  MEMB      65              0.0000000000
      7190        65  OSM       H10S           32.7553783686       14.6597996126        7.1419496161  MEMB      65              0.0000000000
      7191        65  OSM       H10T           32.4216237996       15.9508989448        7.5931139890  MEMB      65              0.0000000000
      7192        65  OSM       C11S           30.7466774351       14.8607373886        6.3206354352  MEMB      65              0.0000000000
      7193        65  OSM       H11S           29.7982924540       15.3520187665        6.6411049051  MEMB      65              0.0000000000
      7194        65  OSM       H11T           30.6867332248       13.7983234885        6.1330839464  MEMB      65              0.0000000000
      7195        65  OSM       C12S           31.0301903261       15.2933094498        4.9230256540  MEMB      65              0.0000000000
      7196        65  OSM       H12S           32.0742809742       15.0876941184        4.5793476129  MEMB      65              0.0000000000
      7197        65  OSM       H12T           30.6235867042       16.3160169183        5.2200401165  MEMB      65              0.0000000000
      7198        65  OSM       C13S           30.3341871952       15.3945380671        3.5913942232  MEMB      65              0.0000000000
      7199        65  OSM       H13S           29.7554075172       16.2882617890        3.5201318425  MEMB      65              0.0000000000
      7200        65  OSM       H13T           29.4876635449       14.8345557645        3.7707579436  MEMB      65              0.0000000000
      7201        65  OSM       C14S           31.3344873062       15.2063356700        2.3576652075  MEMB      65              0.0000000000
      7202        65  OSM       H14S           32.0765579308       14.4656007515        2.6082044965  MEMB      65              0.0000000000
      7203        65  OSM       H14T           32.2242915089       15.7587427562        2.3672010919  MEMB      65              0.0000000000
      7204        65  OSM       C15S           30.5912840431       15.0091731330        1.0059260905  MEMB      65              0.0000000000
      7205        65  OSM       H15S           29.5185089231       14.9899401718        1.2523091346  MEMB      65              0.0000000000
      7206        65  OSM       H15T           30.1269991778       14.1702567604        0.5896586196  MEMB      65              0.0000000000
      7207        65  OSM       C16S           31.0730162140       15.2249431410       -0.3851994691  MEMB      65              0.0000000000
      7208        65  OSM       H16S           30.6629709695       14.4905430084       -1.0077365753  MEMB      65              0.0000000000
      7209        65  OSM       H16T           31.8905242574       14.6488415959        0.0280436497  MEMB      65              0.0000000000
      7210        65  OSM       C17S           31.0846675631       16.5769534914       -1.4570687523  MEMB      65              0.0000000000
      7211        65  OSM       H17S           31.3459797661       17.0075511985       -0.5616606009  MEMB      65              0.0000000000
      7212        65  OSM       H17T           30.1347370346       16.9170214731       -1.7682159651  MEMB      65              0.0000000000
      7213        65  OSM       C18S           31.9084985175       17.9157645729       -1.7872278689  MEMB      65              0.0000000000
      7214        65  OSM       H18S           32.9051842606       18.0307568439       -1.3376294235  MEMB      65              0.0000000000
      7215        65  OSM       H18T           31.8116650130       18.8622860838       -2.2894107951  MEMB      65              0.0000000000
      7216        65  OSM       H18U           31.9020799571       17.5683499594       -2.7951901748  MEMB      65              0.0000000000
      7217        65  OSM       C1F            28.3371503155       14.9458278074       15.1174230687  MEMB      65              0.0000000000
      7218        65  OSM       OF             27.9138880603       15.4027741042       16.1542913162  MEMB      65              0.0000000000
      7219        65  OSM       C2F            27.4569542004       15.0161819806       13.9413897120  MEMB      65              0.0000000000
      7220        65  OSM       H2F            27.0631408931       16.0214848895       13.7353052558  MEMB      65              0.0000000000
      7221        65  OSM       H2G            26.5165008359       14.5578360890       14.3112891471  MEMB      65              0.0000000000
      7222        65  OSM       C3F            28.2452555939       14.5148136251       12.7070046508  MEMB      65              0.0000000000
      7223        65  OSM       H3F            28.7655547748       13.5501875437       12.9050150928  MEMB      65              0.0000000000
      7224        65  OSM       H3G            29.0801269535       15.1657375387       12.4958329876  MEMB      65              0.0000000000
      7225        65  OSM       C4F            27.3745562428       14.5256008082       11.4463412532  MEMB      65              0.0000000000
      7226        65  OSM       H4F            26.4628503036       15.1300185839       11.4416605796  MEMB      65              0.0000000000
      7227        65  OSM       H4G            26.9499359525       13.6581112919       11.8037934951  MEMB      65              0.0000000000
      7228        65  OSM       C5F            27.8589359115       14.1394047557       10.0280709511  MEMB      65              0.0000000000
      7229        65  OSM       H5F            28.2723638399       13.0859907615       10.0037455732  MEMB      65              0.0000000000
      7230        65  OSM       H5G            28.6199932679       14.8936232631        9.8364572695  MEMB      65              0.0000000000
      7231        65  OSM       C6F            26.7709829508       14.2221541935        8.9025086845  MEMB      65              0.0000000000
      7232        65  OSM       H6F            25.7939910416       14.6660921154        9.1668475640  MEMB      65              0.0000000000
      7233        65  OSM       H6G            26.3926026454       13.2592428833        8.5778034882  MEMB      65              0.0000000000
      7234        65  OSM       C7F            27.3883851085       14.5505666373        7.5797937921  MEMB      65              0.0000000000
      7235        65  OSM       H7F            28.2940980191       13.8969615784        7.4942140079  MEMB      65              0.0000000000
      7236        65  OSM       H7G            27.6606265178       15.6164404807        7.6353789726  MEMB      65              0.0000000000
      7237        65  OSM       C8F            26.4555076428       14.2955170370        6.4139162346  MEMB      65              0.0000000000
      7238        65  OSM       H8F            25.7632882955       15.1266061747        6.3225949779  MEMB      65              0.0000000000
      7239        65  OSM       H8G            25.7997242096       13.4024545852        6.5583297028  MEMB      65              0.0000000000
      7240        65  OSM       C9F            27.2211806066       14.3729786603        5.1470229743  MEMB      65              0.0000000000
      7241        65  OSM       H9F            27.9469277674       15.1832827986        5.0205061303  MEMB      65              0.0000000000
      7242        65  OSM       C10F           27.2899270984       13.4392409902        4.2366290931  MEMB      65              0.0000000000
      7243        65  OSM       H10F           27.7231768019       13.6690339931        3.2526170663  MEMB      65              0.0000000000
      7244        65  OSM       C11F           26.7552426422       12.1321031194        4.0808536476  MEMB      65              0.0000000000
      7245        65  OSM       H11F           26.3335915282       12.0924906841        3.0705746146  MEMB      65              0.0000000000
      7246        65  OSM       H11G           25.9191627992       12.2242151882        4.8068329605  MEMB      65              0.0000000000
      7247        65  OSM       C12F           27.5086171015       10.7100712912        4.2063717249  MEMB      65              0.0000000000
      7248        65  OSM       H12F           26.9278561163        9.9248520540        3.8622270400  MEMB      65              0.0000000000
      7249        65  OSM       H12G           27.8421581985       10.3513137612        5.1394611030  MEMB      65              0.0000000000
      7250        65  OSM       C13F           28.3661833978        9.9307143140        3.2143872157  MEMB      65              0.0000000000
      7251        65  OSM       H13F           28.1905913401       10.9985805208        2.8648229208  MEMB      65              0.0000000000
      7252        65  OSM       H13G           28.0072446324        9.7461445944        2.2305584987  MEMB      65              0.0000000000
      7253        65  OSM       C14F           29.9764318412        9.2515458344        3.7342475235  MEMB      65              0.0000000000
      7254        65  OSM       H14F           30.1256168125        8.3714960064        3.1856448512  MEMB      65              0.0000000000
      7255        65  OSM       H14G           29.8836525014        9.2031544637        4.8241587404  MEMB      65              0.0000000000
      7256        65  OSM       C15F           31.6518621442        9.5241678710        3.4262556418  MEMB      65              0.0000000000
      7257        65  OSM       H15F           32.4606176419        9.1038209964        4.0020074087  MEMB      65              0.0000000000
      7258        65  OSM       H15G           31.9969682725       10.5293026923        3.8189994213  MEMB      65              0.0000000000
      7259        65  OSM       C16F           32.1308960252        9.5430574519        1.9584818362  MEMB      65              0.0000000000
      7260        65  OSM       H16F           31.2008073938       10.0222767537        1.7114866652  MEMB      65              0.0000000000
      7261        65  OSM       H16G           31.8524002884        8.7779841150        1.2572874490  MEMB      65              0.0000000000
      7262        65  OSM       C17F           33.5680515945       10.1758759129        1.6066585265  MEMB      65              0.0000000000
      7263        65  OSM       H17F           34.1879703613       10.2200019701        2.4996214029  MEMB      65              0.0000000000
      7264        65  OSM       H17G           33.8615540788       11.2375060204        1.7591507519  MEMB      65              0.0000000000
      7265        65  OSM       C18F           33.8569204113       10.4371962458        0.1112120566  MEMB      65              0.0000000000
      7266        65  OSM       H18F           32.9426557193       10.8008241834       -0.3925633884  MEMB      65              0.0000000000
      7267        65  OSM       H18G           33.8698881173        9.4849442470       -0.3766812646  MEMB      65              0.0000000000
      7268        65  OSM       H18H           34.6106006009       11.2636733730       -0.0956614996  MEMB      65              0.0000000000
      7269        66  SAPS      N              -6.8719760707       32.0599416595       21.4448872644  MEMB      66              0.0000000000
      7270        66  SAPS      HN1            -5.9412436908       31.5961637789       21.5048537998  MEMB      66              0.0000000000
      7271        66  SAPS      HN2            -7.4586768993       31.8349690030       22.2840417839  MEMB      66              0.0000000000
      7272        66  SAPS      HN3            -7.3323545647       31.8924222107       20.5306977966  MEMB      66              0.0000000000
      7273        66  SAPS      C12            -6.5572939064       33.5204180591       21.4644750259  MEMB      66              0.0000000000
      7274        66  SAPS      H12A           -7.4770064828       34.0720387568       21.5994588287  MEMB      66              0.0000000000
      7275        66  SAPS      C13            -5.5702612398       33.8669521864       22.5896392322  MEMB      66              0.0000000000
      7276        66  SAPS      O13A           -5.0391600418       32.9069871222       23.2159677968  MEMB      66              0.0000000000
      7277        66  SAPS      O13B           -5.3706299057       35.0710854316       22.8643664322  MEMB      66              0.0000000000
      7278        66  SAPS      C11            -5.9202603295       33.8494881780       20.0965622959  MEMB      66              0.0000000000
      7279        66  SAPS      H11A           -5.0105303411       33.2212377301       19.9409649000  MEMB      66              0.0000000000
      7280        66  SAPS      H11B           -5.5804862810       34.9151922430       20.0847531343  MEMB      66              0.0000000000
      7281        66  SAPS      P              -6.4711832693       33.9248162430       17.5720315473  MEMB      66              0.0000000000
      7282        66  SAPS      O13            -5.0500569277       33.5827280810       17.3842015447  MEMB      66              0.0000000000
      7283        66  SAPS      O14            -7.4682373888       33.2313591288       16.7351089198  MEMB      66              0.0000000000
      7284        66  SAPS      O12            -6.8814501059       33.5777309138       19.0711933948  MEMB      66              0.0000000000
      7285        66  SAPS      O11            -6.6852866383       35.4960143971       17.4866467115  MEMB      66              0.0000000000
      7286        66  SAPS      C1             -7.6847695919       36.1627303342       18.2383279645  MEMB      66              0.0000000000
      7287        66  SAPS      HA             -8.3472207756       35.4446570855       18.7967467185  MEMB      66              0.0000000000
      7288        66  SAPS      HB             -7.2387941871       36.8392612069       19.0013414461  MEMB      66              0.0000000000
      7289        66  SAPS      C2             -8.6537687887       36.9923924062       17.3623872805  MEMB      66              0.0000000000
      7290        66  SAPS      HS             -9.5526086272       36.9340465768       17.8871663032  MEMB      66              0.0000000000
      7291        66  SAPS      O21            -8.7948995156       36.5589785466       16.0040891113  MEMB      66              0.0000000000
      7292        66  SAPS      C21            -9.6127358362       35.5378197785       15.8067002372  MEMB      66              0.0000000000
      7293        66  SAPS      O22           -10.0835686867       34.8256272330       16.6738858793  MEMB      66              0.0000000000
      7294        66  SAPS      C22           -10.2306326881       35.7204694080       14.4106757814  MEMB      66              0.0000000000
      7295        66  SAPS      H2R           -10.9830132728       34.9208441546       14.2806238563  MEMB      66              0.0000000000
      7296        66  SAPS      H2S           -10.7793870442       36.6875877834       14.3642106547  MEMB      66              0.0000000000
      7297        66  SAPS      C3             -8.3805511697       38.5178739496       17.2861313888  MEMB      66              0.0000000000
      7298        66  SAPS      HX             -8.5362084387       38.9412387557       18.3023837510  MEMB      66              0.0000000000
      7299        66  SAPS      HY             -9.1466211116       38.9674523680       16.5940207974  MEMB      66              0.0000000000
      7300        66  SAPS      O31            -7.0350964889       38.8139487093       16.9575431863  MEMB      66              0.0000000000
      7301        66  SAPS      C31            -6.7393167002       38.6519440509       15.6957030426  MEMB      66              0.0000000000
      7302        66  SAPS      O32            -7.5332739419       38.6226227550       14.7687118997  MEMB      66              0.0000000000
      7303        66  SAPS      C32            -5.2146852736       38.5832240306       15.5527720484  MEMB      66              0.0000000000
      7304        66  SAPS      H2X            -4.7439789494       38.1587798891       16.4442820295  MEMB      66              0.0000000000
      7305        66  SAPS      H2Y            -4.7387622703       39.5408142496       15.5211985933  MEMB      66              0.0000000000
      7306        66  SAPS      C23            -9.1409382992       35.7075482715       13.3184786195  MEMB      66              0.0000000000
      7307        66  SAPS      H3R            -8.3330198269       34.9853116458       13.5973045963  MEMB      66              0.0000000000
      7308        66  SAPS      H3S            -8.7127519218       36.7304625578       13.2514146430  MEMB      66              0.0000000000
      7309        66  SAPS      C24            -9.6019772242       35.3945365437       11.9009521890  MEMB      66              0.0000000000
      7310        66  SAPS      H4R            -8.7385910036       35.3520113632       11.2102823002  MEMB      66              0.0000000000
      7311        66  SAPS      H4S           -10.3970188249       36.0546196363       11.5375112459  MEMB      66              0.0000000000
      7312        66  SAPS      C25           -10.1354792964       34.0686436364       11.8632816437  MEMB      66              0.0000000000
      7313        66  SAPS      H5R           -11.1324204079       33.9228502618       12.3720785884  MEMB      66              0.0000000000
      7314        66  SAPS      C26            -9.3502074091       33.0236795270       11.5432511092  MEMB      66              0.0000000000
      7315        66  SAPS      H6R            -9.8608386003       32.1342727618       11.6068215110  MEMB      66              0.0000000000
      7316        66  SAPS      C27            -8.0454017105       32.4413899337       11.1518384225  MEMB      66              0.0000000000
      7317        66  SAPS      H7R            -7.5957073197       32.4461824933       12.1512550697  MEMB      66              0.0000000000
      7318        66  SAPS      H7S            -7.7471827103       33.2002085238       10.4320018177  MEMB      66              0.0000000000
      7319        66  SAPS      C28            -7.7935293002       31.0086399778       10.5941118117  MEMB      66              0.0000000000
      7320        66  SAPS      H8R            -8.1767550716       30.1506940211       11.2028201226  MEMB      66              0.0000000000
      7321        66  SAPS      C29            -7.7761475157       30.7376568759        9.2619908648  MEMB      66              0.0000000000
      7322        66  SAPS      H9R            -7.7900910548       29.6834456179        8.9168723032  MEMB      66              0.0000000000
      7323        66  SAPS      C210           -7.9975913967       31.7655551721        8.1413854116  MEMB      66              0.0000000000
      7324        66  SAPS      H10R           -7.4807368204       32.7248575682        8.3265542621  MEMB      66              0.0000000000
      7325        66  SAPS      H10S           -9.0042352471       32.1889832480        8.0614355396  MEMB      66              0.0000000000
      7326        66  SAPS      C211           -7.7385490089       31.1732485606        6.7832662381  MEMB      66              0.0000000000
      7327        66  SAPS      H11R           -8.4940800664       30.7123043299        6.1662501052  MEMB      66              0.0000000000
      7328        66  SAPS      C212           -6.5360254257       31.0260308440        6.3388761374  MEMB      66              0.0000000000
      7329        66  SAPS      H12R           -6.2554864900       30.9027206128        5.3048380334  MEMB      66              0.0000000000
      7330        66  SAPS      C213           -5.4764133905       31.4491469249        7.1495117068  MEMB      66              0.0000000000
      7331        66  SAPS      H13R           -5.6093893895       31.4429847664        8.2678442402  MEMB      66              0.0000000000
      7332        66  SAPS      H13S           -5.6009979227       32.4562677077        6.7031824961  MEMB      66              0.0000000000
      7333        66  SAPS      C214           -4.0736566923       31.3809066214        6.9955637546  MEMB      66              0.0000000000
      7334        66  SAPS      H14R           -3.7362094920       31.2098954467        8.0074773988  MEMB      66              0.0000000000
      7335        66  SAPS      C215           -3.2861233121       31.6385745921        5.9638698712  MEMB      66              0.0000000000
      7336        66  SAPS      H15R           -2.1563890053       31.6256553303        6.0404454969  MEMB      66              0.0000000000
      7337        66  SAPS      C216           -4.0403966374       32.0303522918        4.7673424956  MEMB      66              0.0000000000
      7338        66  SAPS      H16R           -3.5529211287       32.8070533012        4.9920000596  MEMB      66              0.0000000000
      7339        66  SAPS      H16S           -4.9008993878       32.6713741622        4.8871841904  MEMB      66              0.0000000000
      7340        66  SAPS      C217           -3.4894033877       31.8964914541        3.4031571300  MEMB      66              0.0000000000
      7341        66  SAPS      H17R           -3.6798473631       31.0113151212        2.9231713717  MEMB      66              0.0000000000
      7342        66  SAPS      H17S           -2.5049601738       31.4158360469        3.6526602690  MEMB      66              0.0000000000
      7343        66  SAPS      C218           -3.8825442072       33.0044730171        2.2856393153  MEMB      66              0.0000000000
      7344        66  SAPS      H18R           -4.9135069479       33.2227270052        2.5607766819  MEMB      66              0.0000000000
      7345        66  SAPS      H18S           -3.8529582338       32.3691222107        1.4614673603  MEMB      66              0.0000000000
      7346        66  SAPS      C219           -3.1290568761       34.2830145615        1.6083937405  MEMB      66              0.0000000000
      7347        66  SAPS      H19R           -2.2143408680       34.1375785660        0.9460713174  MEMB      66              0.0000000000
      7348        66  SAPS      H19S           -2.7193760203       34.9634576814        2.3367458151  MEMB      66              0.0000000000
      7349        66  SAPS      C220           -3.7407350570       35.0823492407        0.5505388396  MEMB      66              0.0000000000
      7350        66  SAPS      H20R           -3.7188524717       36.1228078281        0.9296052236  MEMB      66              0.0000000000
      7351        66  SAPS      H20S           -4.6889690554       34.5358223227        0.4237148809  MEMB      66              0.0000000000
      7352        66  SAPS      H20T           -3.0708945946       35.0560948656       -0.3593306137  MEMB      66              0.0000000000
      7353        66  SAPS      C33            -4.7634671470       38.0521901419       14.2010899196  MEMB      66              0.0000000000
      7354        66  SAPS      H3X            -3.6876584192       38.2960000995       14.0553075021  MEMB      66              0.0000000000
      7355        66  SAPS      H3Y            -5.2660743612       38.6168346853       13.3870867060  MEMB      66              0.0000000000
      7356        66  SAPS      C34            -5.0168677809       36.5571111770       14.1595021570  MEMB      66              0.0000000000
      7357        66  SAPS      H4X            -6.0509452133       36.3152504877       14.5043986541  MEMB      66              0.0000000000
      7358        66  SAPS      H4Y            -4.3167084744       36.0614606645       14.8668276599  MEMB      66              0.0000000000
      7359        66  SAPS      C35            -4.9194567752       36.0010543010       12.7537909397  MEMB      66              0.0000000000
      7360        66  SAPS      H5X            -5.1699087975       34.9166498349       12.8291160731  MEMB      66              0.0000000000
      7361        66  SAPS      H5Y            -3.8561888488       36.0811006780       12.4494766013  MEMB      66              0.0000000000
      7362        66  SAPS      C36            -5.8787856253       36.7979293547       11.8173699533  MEMB      66              0.0000000000
      7363        66  SAPS      H6X            -5.3623039612       37.7342022772       11.4999244656  MEMB      66              0.0000000000
      7364        66  SAPS      H6Y            -6.8251729746       36.9875765874       12.3331213959  MEMB      66              0.0000000000
      7365        66  SAPS      C37            -6.2812199131       36.1095849089       10.5425121381  MEMB      66              0.0000000000
      7366        66  SAPS      H7X            -6.6611558602       35.0831240071       10.7167068728  MEMB      66              0.0000000000
      7367        66  SAPS      H7Y            -5.2108187634       36.1606935342       10.3842369771  MEMB      66              0.0000000000
      7368        66  SAPS      C38            -6.6692813240       36.7549468138        9.1818495439  MEMB      66              0.0000000000
      7369        66  SAPS      H8X            -5.9222639149       37.5439492783        8.9177304847  MEMB      66              0.0000000000
      7370        66  SAPS      H8Y            -7.6558178359       37.1759560138        9.3992712680  MEMB      66              0.0000000000
      7371        66  SAPS      C39            -6.8347691298       35.7555659882        7.9897820371  MEMB      66              0.0000000000
      7372        66  SAPS      H9X            -7.3276665438       34.8434597817        8.3564809993  MEMB      66              0.0000000000
      7373        66  SAPS      H9Y            -5.9532667225       35.3449992526        7.5503728384  MEMB      66              0.0000000000
      7374        66  SAPS      C310           -7.2055655981       36.2839997604        6.6189795060  MEMB      66              0.0000000000
      7375        66  SAPS      H10X           -6.3731341679       36.8732273553        6.1490291090  MEMB      66              0.0000000000
      7376        66  SAPS      H10Y           -8.0265563717       36.9553155406        6.8816696077  MEMB      66              0.0000000000
      7377        66  SAPS      C311           -7.6411277547       35.1606179234        5.6573901986  MEMB      66              0.0000000000
      7378        66  SAPS      H11X           -8.3403556286       34.4797861104        6.1909752596  MEMB      66              0.0000000000
      7379        66  SAPS      H11Y           -6.7705492125       34.5448302878        5.3300224978  MEMB      66              0.0000000000
      7380        66  SAPS      C312           -8.3625074153       35.7323118595        4.4312826951  MEMB      66              0.0000000000
      7381        66  SAPS      H12X           -7.6085260958       36.0919430444        3.7033427706  MEMB      66              0.0000000000
      7382        66  SAPS      H12Y           -8.9457524766       36.6121171638        4.7411366806  MEMB      66              0.0000000000
      7383        66  SAPS      C313           -9.2697531106       34.7583648035        3.6789999546  MEMB      66              0.0000000000
      7384        66  SAPS      H13X           -9.7508840214       35.2825744398        2.8202943313  MEMB      66              0.0000000000
      7385        66  SAPS      H13Y          -10.0492521005       34.2989934556        4.3232771282  MEMB      66              0.0000000000
      7386        66  SAPS      C314           -8.4233337731       33.6804329402        3.0986087800  MEMB      66              0.0000000000
      7387        66  SAPS      H14X           -8.1232731590       32.9623892925        3.8937537222  MEMB      66              0.0000000000
      7388        66  SAPS      H14Y           -7.5032409623       34.1445581562        2.6632847948  MEMB      66              0.0000000000
      7389        66  SAPS      C315           -9.0035383503       32.9547362216        1.9406257497  MEMB      66              0.0000000000
      7390        66  SAPS      H15X           -9.6578435105       33.4995335314        1.2164167745  MEMB      66              0.0000000000
      7391        66  SAPS      H15Y           -9.6604697066       32.1373869414        2.3232663811  MEMB      66              0.0000000000
      7392        66  SAPS      C316           -7.7077534017       32.4469022347        1.2907365428  MEMB      66              0.0000000000
      7393        66  SAPS      H16X           -6.9414740878       32.9362097347        0.6861138495  MEMB      66              0.0000000000
      7394        66  SAPS      H16Y           -8.2232626301       32.3895183207        0.3101792789  MEMB      66              0.0000000000
      7395        66  SAPS      C317           -7.0743554901       31.2696174995        2.2014544584  MEMB      66              0.0000000000
      7396        66  SAPS      H17X           -7.7350180250       30.5378107556        2.7072852298  MEMB      66              0.0000000000
      7397        66  SAPS      H17Y           -6.5264383163       31.7579384457        3.0131107348  MEMB      66              0.0000000000
      7398        66  SAPS      C318           -6.2200601087       30.2430044469        1.5362209451  MEMB      66              0.0000000000
      7399        66  SAPS      H18X           -5.5138145168       31.0766301383        1.5855489201  MEMB      66              0.0000000000
      7400        66  SAPS      H18Y           -6.3707786077       29.8864048756        0.4640844520  MEMB      66              0.0000000000
      7401        66  SAPS      H18Z           -5.5131139711       29.5132031200        1.8575987159  MEMB      66              0.0000000000
      7402        67  SAPE      N               7.2491774474       36.3471918683       18.7748251928  MEMB      67              0.0000000000
      7403        67  SAPE      HN1             7.0358358616       36.5186955060       19.7852914926  MEMB      67              0.0000000000
      7404        67  SAPE      HN2             7.6930692052       37.2028845206       18.3657524522  MEMB      67              0.0000000000
      7405        67  SAPE      HN3             6.3579818619       36.1385993772       18.2912012671  MEMB      67              0.0000000000
      7406        67  SAPE      C12             8.1637420967       35.1502776364       18.6193719584  MEMB      67              0.0000000000
      7407        67  SAPE      H12A            8.9888485166       35.2851672646       19.3419519219  MEMB      67              0.0000000000
      7408        67  SAPE      H12B            8.5891768521       35.1686553061       17.5955335672  MEMB      67              0.0000000000
      7409        67  SAPE      C11             7.4577251890       33.7974219916       18.6915455366  MEMB      67              0.0000000000
      7410        67  SAPE      H11A            8.0937621624       33.0571857436       18.1372735196  MEMB      67              0.0000000000
      7411        67  SAPE      H11B            6.4976213470       33.8578343346       18.1440468892  MEMB      67              0.0000000000
      7412        67  SAPE      P               8.2175189437       32.5758929548       20.8910000365  MEMB      67              0.0000000000
      7413        67  SAPE      O13             8.8042722518       33.5661824445       21.8010027342  MEMB      67              0.0000000000
      7414        67  SAPE      O14             7.5756883612       31.3774944814       21.4456355198  MEMB      67              0.0000000000
      7415        67  SAPE      O12             7.1671259574       33.4047635437       20.0205845091  MEMB      67              0.0000000000
      7416        67  SAPE      O11             9.3371162791       32.1630626157       19.8571712692  MEMB      67              0.0000000000
      7417        67  SAPE      C1             10.2775665937       31.1496398319       20.2128554486  MEMB      67              0.0000000000
      7418        67  SAPE      HA             11.2131079442       31.5680085036       20.6153472715  MEMB      67              0.0000000000
      7419        67  SAPE      HB              9.8712534146       30.3734056213       20.9212544639  MEMB      67              0.0000000000
      7420        67  SAPE      C2             10.6786429635       30.4354623204       18.9543761101  MEMB      67              0.0000000000
      7421        67  SAPE      HS             11.6565847998       29.9324226462       19.0352894664  MEMB      67              0.0000000000
      7422        67  SAPE      O21            10.6491004419       31.1729207583       17.7749729648  MEMB      67              0.0000000000
      7423        67  SAPE      C21            11.6451499499       31.8390757323       17.6492005006  MEMB      67              0.0000000000
      7424        67  SAPE      O22            12.6209212356       31.9855919426       18.3820756968  MEMB      67              0.0000000000
      7425        67  SAPE      C22            11.4913963796       32.3908782542       16.3128097649  MEMB      67              0.0000000000
      7426        67  SAPE      H2R            10.4680508889       32.7118853916       16.0704410603  MEMB      67              0.0000000000
      7427        67  SAPE      H2S            12.3829105494       32.9994738717       16.5460833999  MEMB      67              0.0000000000
      7428        67  SAPE      C3              9.7303318863       29.4095825682       18.7297949869  MEMB      67              0.0000000000
      7429        67  SAPE      HX              9.8295608561       28.7150600934       19.6319900170  MEMB      67              0.0000000000
      7430        67  SAPE      HY             10.2668020859       28.9680045825       17.9055395707  MEMB      67              0.0000000000
      7431        67  SAPE      O31             8.4861788343       30.1334795334       18.3736621569  MEMB      67              0.0000000000
      7432        67  SAPE      C31             7.5990653025       29.3935227727       18.9626711380  MEMB      67              0.0000000000
      7433        67  SAPE      O32             7.9368812503       28.2315072833       19.1126027069  MEMB      67              0.0000000000
      7434        67  SAPE      C32             6.2347814508       30.0775760573       18.8859151902  MEMB      67              0.0000000000
      7435        67  SAPE      H2X             6.0349109996       30.9962406729       19.4183389324  MEMB      67              0.0000000000
      7436        67  SAPE      H2Y             5.4103097445       29.4691265913       19.3415867220  MEMB      67              0.0000000000
      7437        67  SAPE      C23            11.6946152127       31.7874613093       14.9931239993  MEMB      67              0.0000000000
      7438        67  SAPE      H3R            12.7952412376       31.7974275334       15.3171914797  MEMB      67              0.0000000000
      7439        67  SAPE      H3S            11.9155078661       32.1983835911       13.9882768120  MEMB      67              0.0000000000
      7440        67  SAPE      C24            10.8091440507       30.4909873100       14.9578216301  MEMB      67              0.0000000000
      7441        67  SAPE      H4R            11.0145392399       29.6041004217       15.5912105666  MEMB      67              0.0000000000
      7442        67  SAPE      H4S            11.0356976330       29.6781348507       14.2988546578  MEMB      67              0.0000000000
      7443        67  SAPE      C25             9.5949518614       30.4649080552       14.3564995480  MEMB      67              0.0000000000
      7444        67  SAPE      H5R             9.0194299754       30.0098119261       15.1509706534  MEMB      67              0.0000000000
      7445        67  SAPE      C26             9.3208526036       30.7698374316       13.0986594740  MEMB      67              0.0000000000
      7446        67  SAPE      H6R             8.2814485084       30.6197852291       12.9211909621  MEMB      67              0.0000000000
      7447        67  SAPE      C27            10.1700505123       31.2484714224       11.9263260348  MEMB      67              0.0000000000
      7448        67  SAPE      H7R             9.7796686946       30.8219020146       10.9894737174  MEMB      67              0.0000000000
      7449        67  SAPE      H7S            11.2443161311       31.1059480805       11.8213900456  MEMB      67              0.0000000000
      7450        67  SAPE      C28            10.2557359386       32.6987793667       11.9756668375  MEMB      67              0.0000000000
      7451        67  SAPE      H8R            10.4317959757       33.1317192543       12.9823329427  MEMB      67              0.0000000000
      7452        67  SAPE      C29            10.3979615239       33.4359431855       10.8894326248  MEMB      67              0.0000000000
      7453        67  SAPE      H9R            10.2055181863       34.4824686036       11.0864390952  MEMB      67              0.0000000000
      7454        67  SAPE      C210           10.5146793402       33.1254507254        9.4305302986  MEMB      67              0.0000000000
      7455        67  SAPE      H10R            9.5558287727       32.6437859009        9.2031143698  MEMB      67              0.0000000000
      7456        67  SAPE      H10S           11.3277412967       32.3884760381        9.2292717176  MEMB      67              0.0000000000
      7457        67  SAPE      C211           10.5944759964       34.3862521650        8.5890057834  MEMB      67              0.0000000000
      7458        67  SAPE      H11R           10.1593793465       35.3018031512        8.9945887643  MEMB      67              0.0000000000
      7459        67  SAPE      C212           11.1480818371       34.5979911236        7.4173118837  MEMB      67              0.0000000000
      7460        67  SAPE      H12R           10.9515882671       35.6145135276        6.9745008327  MEMB      67              0.0000000000
      7461        67  SAPE      C213           11.8766080230       33.5818335093        6.6072280277  MEMB      67              0.0000000000
      7462        67  SAPE      H13R           11.4215634745       33.1463997037        5.7032134437  MEMB      67              0.0000000000
      7463        67  SAPE      H13S           12.4989039313       32.8052571913        7.1547045962  MEMB      67              0.0000000000
      7464        67  SAPE      C214           12.7466726891       34.6737492220        6.2108247820  MEMB      67              0.0000000000
      7465        67  SAPE      H14R           13.5412004852       33.9763609656        6.2751237801  MEMB      67              0.0000000000
      7466        67  SAPE      C215           12.8238928762       35.4934584597        5.1400700420  MEMB      67              0.0000000000
      7467        67  SAPE      H15R           13.7991311158       35.8849250881        4.7415078225  MEMB      67              0.0000000000
      7468        67  SAPE      C216           11.9255943981       35.3960798163        4.0321927253  MEMB      67              0.0000000000
      7469        67  SAPE      H16R           12.1849662492       36.4261744760        3.8510233259  MEMB      67              0.0000000000
      7470        67  SAPE      H16S           10.9695300561       34.9678514301        4.4088623006  MEMB      67              0.0000000000
      7471        67  SAPE      C217           11.8672197173       35.3840181658        2.4587470222  MEMB      67              0.0000000000
      7472        67  SAPE      H17R           12.7857324460       35.9418992181        2.0630183172  MEMB      67              0.0000000000
      7473        67  SAPE      H17S           10.8323457642       35.3134395599        2.1025076261  MEMB      67              0.0000000000
      7474        67  SAPE      C218           11.8315547090       33.9819017566        1.9352988862  MEMB      67              0.0000000000
      7475        67  SAPE      H18R           11.8327203481       33.7651859832        3.0356657399  MEMB      67              0.0000000000
      7476        67  SAPE      H18S           12.7015835244       34.2883559415        1.3055356402  MEMB      67              0.0000000000
      7477        67  SAPE      C219           11.4150700876       32.7111358437        0.8700288107  MEMB      67              0.0000000000
      7478        67  SAPE      H19R           11.9156277371       33.1322005417       -0.0328196186  MEMB      67              0.0000000000
      7479        67  SAPE      H19S           10.4246835836       32.3142296985        1.0313552212  MEMB      67              0.0000000000
      7480        67  SAPE      C220           11.8435970383       31.0484181838        0.8303873674  MEMB      67              0.0000000000
      7481        67  SAPE      H20R           12.9359626793       31.0296731987        0.7929265052  MEMB      67              0.0000000000
      7482        67  SAPE      H20S           11.6359177210       30.4331639692       -0.0288686326  MEMB      67              0.0000000000
      7483        67  SAPE      H20T           11.9727394285       30.3390924750        1.7242899020  MEMB      67              0.0000000000
      7484        67  SAPE      C33             6.1548768147       30.4950836973       17.3969341828  MEMB      67              0.0000000000
      7485        67  SAPE      H3X             6.4585370239       29.5884816875       16.8960218743  MEMB      67              0.0000000000
      7486        67  SAPE      H3Y             6.9890572374       30.9030949718       16.8349099534  MEMB      67              0.0000000000
      7487        67  SAPE      C34             4.8378707114       31.1958776510       17.0741629793  MEMB      67              0.0000000000
      7488        67  SAPE      H4X             4.9653694394       32.2378837747       17.3650649943  MEMB      67              0.0000000000
      7489        67  SAPE      H4Y             3.8743422440       30.7042158562       17.4491261573  MEMB      67              0.0000000000
      7490        67  SAPE      C35             4.4574000832       31.5915492646       15.6745558197  MEMB      67              0.0000000000
      7491        67  SAPE      H5X             3.4492133837       32.0107193781       15.8623346435  MEMB      67              0.0000000000
      7492        67  SAPE      H5Y             4.3591999700       30.6681902310       15.2576973866  MEMB      67              0.0000000000
      7493        67  SAPE      C36             5.3552326050       32.1239823895       14.5589670640  MEMB      67              0.0000000000
      7494        67  SAPE      H6X             6.3232738724       31.5504767443       14.5560070011  MEMB      67              0.0000000000
      7495        67  SAPE      H6Y             5.2315087873       33.1514189818       14.8852865269  MEMB      67              0.0000000000
      7496        67  SAPE      C37             4.8773846500       32.1827763472       13.0951820308  MEMB      67              0.0000000000
      7497        67  SAPE      H7X             3.8192952557       32.3502707604       12.9861098355  MEMB      67              0.0000000000
      7498        67  SAPE      H7Y             5.0024478566       31.2453746950       12.6889800006  MEMB      67              0.0000000000
      7499        67  SAPE      C38             5.7784972408       32.7850619781       12.0314351580  MEMB      67              0.0000000000
      7500        67  SAPE      H8X             6.7638614224       32.2466674522       12.0643150591  MEMB      67              0.0000000000
      7501        67  SAPE      H8Y             5.7668644390       33.8069181871       12.4074144844  MEMB      67              0.0000000000
      7502        67  SAPE      C39             5.2507717595       32.7743860825       10.5942910348  MEMB      67              0.0000000000
      7503        67  SAPE      H9X             4.2705343635       33.2610880274       10.4733488569  MEMB      67              0.0000000000
      7504        67  SAPE      H9Y             5.0547080759       31.7954950408       10.1988804514  MEMB      67              0.0000000000
      7505        67  SAPE      C310            6.2234951617       33.2036446154        9.5397483883  MEMB      67              0.0000000000
      7506        67  SAPE      H10X            7.0117250560       32.4142043166        9.4524562834  MEMB      67              0.0000000000
      7507        67  SAPE      H10Y            6.6818694092       34.1309887552        9.9263139067  MEMB      67              0.0000000000
      7508        67  SAPE      C311            5.4363603884       33.2764577307        8.2204452124  MEMB      67              0.0000000000
      7509        67  SAPE      H11X            4.8324274627       34.2068511094        8.1844454892  MEMB      67              0.0000000000
      7510        67  SAPE      H11Y            4.7400480958       32.4010030601        8.1758613429  MEMB      67              0.0000000000
      7511        67  SAPE      C312            6.3421561648       33.1463280022        7.0063014606  MEMB      67              0.0000000000
      7512        67  SAPE      H12X            6.8830701830       32.1788739549        7.1064710641  MEMB      67              0.0000000000
      7513        67  SAPE      H12Y            7.1091215734       33.9453611667        7.0709428065  MEMB      67              0.0000000000
      7514        67  SAPE      C313            5.6614583582       33.2257201083        5.6270215475  MEMB      67              0.0000000000
      7515        67  SAPE      H13X            5.2434492328       34.2437220089        5.4857642265  MEMB      67              0.0000000000
      7516        67  SAPE      H13Y            4.8071699583       32.5205333823        5.5029828209  MEMB      67              0.0000000000
      7517        67  SAPE      C314            6.7039741417       32.9488505926        4.5429559426  MEMB      67              0.0000000000
      7518        67  SAPE      H14X            7.6639915418       33.4688970168        4.7717830583  MEMB      67              0.0000000000
      7519        67  SAPE      H14Y            6.3743290064       33.2649230943        3.5329286693  MEMB      67              0.0000000000
      7520        67  SAPE      C315            7.0030233793       31.4751207299        4.4108756683  MEMB      67              0.0000000000
      7521        67  SAPE      H15X            6.0585218711       30.9063434158        4.2489614252  MEMB      67              0.0000000000
      7522        67  SAPE      H15Y            7.3599701700       31.1415035940        5.4060231033  MEMB      67              0.0000000000
      7523        67  SAPE      C316            7.9216549795       31.2944317340        3.1819250478  MEMB      67              0.0000000000
      7524        67  SAPE      H16X            8.8803112597       31.8368731204        3.1726766306  MEMB      67              0.0000000000
      7525        67  SAPE      H16Y            7.2802861851       31.3318213600        2.2692397959  MEMB      67              0.0000000000
      7526        67  SAPE      C317            8.4694352521       29.9530403792        3.1050978051  MEMB      67              0.0000000000
      7527        67  SAPE      H17X            7.5029566783       29.4483138562        2.7636404428  MEMB      67              0.0000000000
      7528        67  SAPE      H17Y            8.8316170119       29.8554659050        4.1667053222  MEMB      67              0.0000000000
      7529        67  SAPE      C318            9.5891800812       29.3827697551        2.2882852614  MEMB      67              0.0000000000
      7530        67  SAPE      H18X           10.5264638501       29.1968648140        2.8544612102  MEMB      67              0.0000000000
      7531        67  SAPE      H18Y            9.6349067538       29.9449306378        1.3617926110  MEMB      67              0.0000000000
      7532        67  SAPE      H18Z            9.4160255028       28.3641073219        1.9850269289  MEMB      67              0.0000000000
      7533        68  POPC      N             -16.1823190379      -30.8127522946       18.9822362682  MEMB      68              0.0000000000
      7534        68  POPC      C12           -17.0026664138      -30.0265430518       17.9944371506  MEMB      68              0.0000000000
      7535        68  POPC      H12A          -17.8960671683      -30.6158871892       17.9641660982  MEMB      68              0.0000000000
      7536        68  POPC      H12B          -16.4826867464      -29.9835430526       17.0387158034  MEMB      68              0.0000000000
      7537        68  POPC      C13           -15.0552467479      -30.2752107894       19.1187017625  MEMB      68              0.0000000000
      7538        68  POPC      H13A          -15.1010190417      -29.1773646958       19.3227640530  MEMB      68              0.0000000000
      7539        68  POPC      H13B          -14.2619653178      -30.5549708399       19.8215718113  MEMB      68              0.0000000000
      7540        68  POPC      H13C          -14.5340626775      -30.3180383752       18.1366466961  MEMB      68              0.0000000000
      7541        68  POPC      C14           -16.3550260975      -30.5547527110       20.3548436347  MEMB      68              0.0000000000
      7542        68  POPC      H14A          -16.3626160198      -29.5174039546       20.6874119235  MEMB      68              0.0000000000
      7543        68  POPC      H14B          -17.2598966440      -31.0487534612       20.6182517724  MEMB      68              0.0000000000
      7544        68  POPC      H14C          -15.5236241579      -31.0443230293       20.9046926347  MEMB      68              0.0000000000
      7545        68  POPC      C15           -15.6183024884      -32.0898106392       18.5505511897  MEMB      68              0.0000000000
      7546        68  POPC      H15A          -14.9974988012      -31.8844132454       17.6812765421  MEMB      68              0.0000000000
      7547        68  POPC      H15B          -16.4318917517      -32.6885030603       18.2846366183  MEMB      68              0.0000000000
      7548        68  POPC      H15C          -14.8492162388      -32.4683177319       19.2155056618  MEMB      68              0.0000000000
      7549        68  POPC      C11           -17.4323396909      -28.5805777259       18.3180472271  MEMB      68              0.0000000000
      7550        68  POPC      H11A          -17.8642578831      -28.0773468381       17.4291040124  MEMB      68              0.0000000000
      7551        68  POPC      H11B          -16.6067192072      -27.9309968998       18.5374393494  MEMB      68              0.0000000000
      7552        68  POPC      P             -19.7717626296      -28.8961755434       19.3238158484  MEMB      68              0.0000000000
      7553        68  POPC      O13           -20.4401487959      -27.9772056839       20.2165666022  MEMB      68              0.0000000000
      7554        68  POPC      O14           -19.9623238349      -30.3468575806       19.5343327306  MEMB      68              0.0000000000
      7555        68  POPC      O12           -18.2723122193      -28.5329184581       19.4371754378  MEMB      68              0.0000000000
      7556        68  POPC      O11           -20.1427694923      -28.5125126698       17.8541287630  MEMB      68              0.0000000000
      7557        68  POPC      C1            -21.4436475256      -28.8357759059       17.3923372086  MEMB      68              0.0000000000
      7558        68  POPC      HA            -22.1362587082      -27.9478875992       17.5079813227  MEMB      68              0.0000000000
      7559        68  POPC      HB            -21.9275853741      -29.7328750130       17.8200760508  MEMB      68              0.0000000000
      7560        68  POPC      C2            -21.2434663241      -29.2147920988       15.9434017604  MEMB      68              0.0000000000
      7561        68  POPC      HS            -22.2773232720      -29.5295984060       15.5875546784  MEMB      68              0.0000000000
      7562        68  POPC      O21           -20.3020781312      -30.0963240841       15.4443499407  MEMB      68              0.0000000000
      7563        68  POPC      C21           -20.1941787723      -31.1255734561       15.9871306536  MEMB      68              0.0000000000
      7564        68  POPC      O22           -20.9369639140      -31.7493334837       16.6982389294  MEMB      68              0.0000000000
      7565        68  POPC      C22           -18.9388385531      -31.6831634884       15.6194867659  MEMB      68              0.0000000000
      7566        68  POPC      H2R           -18.9545697994      -32.2419786074       16.5189490558  MEMB      68              0.0000000000
      7567        68  POPC      H2S           -18.0439367162      -31.0767447854       15.8121263139  MEMB      68              0.0000000000
      7568        68  POPC      C3            -20.8174644325      -28.0901623855       15.1972823712  MEMB      68              0.0000000000
      7569        68  POPC      HX            -21.4941888820      -27.3797029895       15.6816277363  MEMB      68              0.0000000000
      7570        68  POPC      HY            -21.0709338864      -28.6073892537       14.2030455925  MEMB      68              0.0000000000
      7571        68  POPC      O31           -19.5613503094      -27.4640718541       15.2402073465  MEMB      68              0.0000000000
      7572        68  POPC      C31           -18.9109631456      -27.6461749999       14.1321087070  MEMB      68              0.0000000000
      7573        68  POPC      O32           -19.1799103726      -28.3963161438       13.2091099731  MEMB      68              0.0000000000
      7574        68  POPC      C32           -17.7307003960      -26.7557614073       14.2366848550  MEMB      68              0.0000000000
      7575        68  POPC      H2X           -17.6210443911      -26.3966571644       15.2872861018  MEMB      68              0.0000000000
      7576        68  POPC      H2Y           -17.8571590742      -25.9150533629       13.5300531443  MEMB      68              0.0000000000
      7577        68  POPC      C23           -19.2579664446      -32.3393411205       14.2708312748  MEMB      68              0.0000000000
      7578        68  POPC      H3R           -19.4150951036      -31.5279477318       13.5168050119  MEMB      68              0.0000000000
      7579        68  POPC      H3S           -19.8839027576      -33.2477144534       14.2378284080  MEMB      68              0.0000000000
      7580        68  POPC      C24           -18.0856708722      -32.9526540468       13.7840188488  MEMB      68              0.0000000000
      7581        68  POPC      H4R           -17.7890288116      -33.6275238607       14.6044120741  MEMB      68              0.0000000000
      7582        68  POPC      H4S           -17.5722195915      -31.9305581556       13.8234522671  MEMB      68              0.0000000000
      7583        68  POPC      C25           -17.8824160137      -33.6889414105       12.4725084309  MEMB      68              0.0000000000
      7584        68  POPC      H5R           -18.2968324863      -34.6855069615       12.4482660892  MEMB      68              0.0000000000
      7585        68  POPC      H5S           -16.8556249548      -34.0849995042       12.3356737331  MEMB      68              0.0000000000
      7586        68  POPC      C26           -18.2453630158      -32.7512840670       11.3541931146  MEMB      68              0.0000000000
      7587        68  POPC      H6R           -17.7205862466      -31.7589564464       11.4625881986  MEMB      68              0.0000000000
      7588        68  POPC      H6S           -19.1957552801      -32.2800528648       11.5030582907  MEMB      68              0.0000000000
      7589        68  POPC      C27           -18.2044546536      -33.4698477673        9.9798787366  MEMB      68              0.0000000000
      7590        68  POPC      H7R           -18.4103290227      -34.5253020910        9.9257045937  MEMB      68              0.0000000000
      7591        68  POPC      H7S           -17.2358134784      -33.9929447969        9.9930071970  MEMB      68              0.0000000000
      7592        68  POPC      C28           -18.4565402910      -32.5052132979        8.7370940105  MEMB      68              0.0000000000
      7593        68  POPC      H8R           -17.9786136174      -32.7007053873        7.7616894751  MEMB      68              0.0000000000
      7594        68  POPC      H8S           -18.2450570447      -31.4240765783        8.8852837371  MEMB      68              0.0000000000
      7595        68  POPC      C29           -19.8477400008      -32.3642385583        8.6801849061  MEMB      68              0.0000000000
      7596        68  POPC      H91           -20.2573600454      -33.0839803393        9.3704227955  MEMB      68              0.0000000000
      7597        68  POPC      C210          -20.4851584667      -31.3447154589        8.1445664109  MEMB      68              0.0000000000
      7598        68  POPC      H101          -21.5514505038      -31.4115846639        8.2764412769  MEMB      68              0.0000000000
      7599        68  POPC      C211          -19.8500949537      -30.1375729858        7.4759244537  MEMB      68              0.0000000000
      7600        68  POPC      H11R          -20.4916686867      -29.9230463477        6.6060581964  MEMB      68              0.0000000000
      7601        68  POPC      H11S          -18.8186248580      -30.3133837318        7.0729815735  MEMB      68              0.0000000000
      7602        68  POPC      C212          -19.7256372382      -28.8949687664        8.3860820103  MEMB      68              0.0000000000
      7603        68  POPC      H12R          -18.9178217621      -29.0412141165        9.1424394462  MEMB      68              0.0000000000
      7604        68  POPC      H12S          -20.6943703108      -28.7508341571        8.9042540676  MEMB      68              0.0000000000
      7605        68  POPC      C213          -19.5221757119      -27.5809778240        7.6350808219  MEMB      68              0.0000000000
      7606        68  POPC      H13R          -18.4516380399      -27.3424429807        7.5667229055  MEMB      68              0.0000000000
      7607        68  POPC      H13S          -19.9956903266      -26.7638763483        8.2228254099  MEMB      68              0.0000000000
      7608        68  POPC      C214          -20.1299937535      -27.6176545692        6.2375865034  MEMB      68              0.0000000000
      7609        68  POPC      H14R          -21.1591367984      -28.0211572227        6.3104832055  MEMB      68              0.0000000000
      7610        68  POPC      H14S          -19.4902401204      -28.2509639517        5.5960636171  MEMB      68              0.0000000000
      7611        68  POPC      C215          -20.3082178237      -26.3164980450        5.5462925149  MEMB      68              0.0000000000
      7612        68  POPC      H15R          -19.3546413642      -25.8395563433        5.4166985695  MEMB      68              0.0000000000
      7613        68  POPC      H15S          -21.0423794650      -25.6640203808        6.0907932190  MEMB      68              0.0000000000
      7614        68  POPC      C216          -20.5292440828      -26.3967446971        4.0726421531  MEMB      68              0.0000000000
      7615        68  POPC      H16R          -21.1883207825      -25.5324008517        4.1032755323  MEMB      68              0.0000000000
      7616        68  POPC      H16S          -21.2399819149      -27.1533390899        3.7784825171  MEMB      68              0.0000000000
      7617        68  POPC      C217          -19.2648427103      -26.2972584771        3.1342450295  MEMB      68              0.0000000000
      7618        68  POPC      H17R          -18.5571612005      -27.0588688425        3.5072550389  MEMB      68              0.0000000000
      7619        68  POPC      H17S          -18.6727017130      -25.3779752501        3.3147032787  MEMB      68              0.0000000000
      7620        68  POPC      C218          -19.4294876180      -26.5734934510        1.5992411449  MEMB      68              0.0000000000
      7621        68  POPC      H18R          -19.6189543417      -27.6391563465        1.4397624114  MEMB      68              0.0000000000
      7622        68  POPC      H18S          -18.6242959312      -26.1490848100        0.9724951804  MEMB      68              0.0000000000
      7623        68  POPC      H18T          -20.2505011299      -26.1129799596        1.0394554694  MEMB      68              0.0000000000
      7624        68  POPC      C33           -16.5440256053      -27.6024403287       13.8926303418  MEMB      68              0.0000000000
      7625        68  POPC      H3X           -16.7306373758      -28.6746361514       14.1645134106  MEMB      68              0.0000000000
      7626        68  POPC      H3Y           -15.6909718340      -27.2011198506       14.4922877302  MEMB      68              0.0000000000
      7627        68  POPC      C34           -16.2406533923      -27.5965324896       12.4144616094  MEMB      68              0.0000000000
      7628        68  POPC      H4X           -15.4286379893      -26.8666010727       12.2782868079  MEMB      68              0.0000000000
      7629        68  POPC      H4Y           -17.0996670573      -27.2670376066       11.8236782941  MEMB      68              0.0000000000
      7630        68  POPC      C35           -15.9522304347      -29.0031481528       11.9136156331  MEMB      68              0.0000000000
      7631        68  POPC      H5X           -16.8442069127      -29.6265665377       11.7763768345  MEMB      68              0.0000000000
      7632        68  POPC      H5Y           -15.5079992216      -29.4967707582       12.7542325285  MEMB      68              0.0000000000
      7633        68  POPC      C36           -15.0552988985      -29.1053764804       10.7077631800  MEMB      68              0.0000000000
      7634        68  POPC      H6X           -14.7475451841      -30.1625386294       10.6280740270  MEMB      68              0.0000000000
      7635        68  POPC      H6Y           -14.0461653791      -28.6835328713       10.7170949370  MEMB      68              0.0000000000
      7636        68  POPC      C37           -15.6799749590      -28.3127023728        9.5621339475  MEMB      68              0.0000000000
      7637        68  POPC      H7X           -15.3233237081      -27.4240805343        9.9108417479  MEMB      68              0.0000000000
      7638        68  POPC      H7Y           -16.7436869923      -28.0784681338        9.5749259089  MEMB      68              0.0000000000
      7639        68  POPC      C38           -15.1065336525      -28.5234422112        8.1942730930  MEMB      68              0.0000000000
      7640        68  POPC      H8X           -14.5637328628      -29.3786142387        8.6257529398  MEMB      68              0.0000000000
      7641        68  POPC      H8Y           -14.0715168923      -28.5719941089        7.8011851398  MEMB      68              0.0000000000
      7642        68  POPC      C39           -16.1286355718      -28.4008302645        7.0193237958  MEMB      68              0.0000000000
      7643        68  POPC      H9X           -16.1820559813      -27.3264769494        6.8202430965  MEMB      68              0.0000000000
      7644        68  POPC      H9Y           -17.1488103821      -28.6697164441        7.1871824684  MEMB      68              0.0000000000
      7645        68  POPC      C310          -15.7669170825      -29.0850902142        5.7085913763  MEMB      68              0.0000000000
      7646        68  POPC      H10X          -15.7712353245      -30.1750071333        5.6892810581  MEMB      68              0.0000000000
      7647        68  POPC      H10Y          -14.7960907732      -28.7312854789        5.5418823985  MEMB      68              0.0000000000
      7648        68  POPC      C311          -16.6025694383      -28.8758859433        4.5429809625  MEMB      68              0.0000000000
      7649        68  POPC      H11X          -16.5800995150      -28.0084717294        3.9277381718  MEMB      68              0.0000000000
      7650        68  POPC      H11Y          -17.5911564451      -29.0470398514        4.8613605268  MEMB      68              0.0000000000
      7651        68  POPC      C312          -16.3512824844      -29.7761337958        3.4950881918  MEMB      68              0.0000000000
      7652        68  POPC      H12X          -15.3372966720      -30.1760034350        3.4159216390  MEMB      68              0.0000000000
      7653        68  POPC      H12Y          -16.7644963345      -29.2841871556        2.5601256810  MEMB      68              0.0000000000
      7654        68  POPC      C313          -17.0691930592      -30.9249373848        3.7017493436  MEMB      68              0.0000000000
      7655        68  POPC      H13X          -17.3632091853      -31.1294421991        4.7128167481  MEMB      68              0.0000000000
      7656        68  POPC      H13Y          -16.2160039052      -31.6805303378        3.6802409966  MEMB      68              0.0000000000
      7657        68  POPC      C314          -18.0904944006      -30.8586470976        2.5866616660  MEMB      68              0.0000000000
      7658        68  POPC      H14X          -17.8732739356      -31.8940931440        2.7199989910  MEMB      68              0.0000000000
      7659        68  POPC      H14Y          -17.8339467979      -30.4159995862        1.5128091971  MEMB      68              0.0000000000
      7660        68  POPC      C315          -19.4452458769      -30.5310537890        2.8007014228  MEMB      68              0.0000000000
      7661        68  POPC      H15X          -20.2627678483      -31.3634735725        2.7453353902  MEMB      68              0.0000000000
      7662        68  POPC      H15Y          -19.4782208717      -29.7243831597        2.0139233055  MEMB      68              0.0000000000
      7663        68  POPC      C316          -19.8576295762      -30.3754994552        4.0748934065  MEMB      68              0.0000000000
      7664        68  POPC      H16X          -19.7037611978      -31.4552972903        4.4523480794  MEMB      68              0.0000000000
      7665        68  POPC      H16Y          -20.8160470184      -29.9337212079        3.6548962242  MEMB      68              0.0000000000
      7666        68  POPC      H16Z          -19.1246397450      -29.6650054877        4.3534692282  MEMB      68              0.0000000000
      7667        69  OSM       N              27.1192485777      -20.9692613694       22.3984964878  MEMB      69              0.0000000000
      7668        69  OSM       C15            26.5806494425      -19.5683467893       22.5072309338  MEMB      69              0.0000000000
      7669        69  OSM       H15A           26.0309234316      -19.3843145486       23.4174598696  MEMB      69              0.0000000000
      7670        69  OSM       H15B           25.9594214342      -19.3425211677       21.6510906394  MEMB      69              0.0000000000
      7671        69  OSM       H15C           27.4190433355      -18.8708854733       22.4600488175  MEMB      69              0.0000000000
      7672        69  OSM       C14            28.2970717573      -21.1143410753       23.3350223066  MEMB      69              0.0000000000
      7673        69  OSM       H14A           29.0392029551      -20.3509613304       23.1078382961  MEMB      69              0.0000000000
      7674        69  OSM       H14B           28.7663333673      -22.0868679151       23.2158515928  MEMB      69              0.0000000000
      7675        69  OSM       H14C           28.0322727682      -20.9853949522       24.3820800544  MEMB      69              0.0000000000
      7676        69  OSM       C13            26.0724160467      -21.9831987390       22.7741745350  MEMB      69              0.0000000000
      7677        69  OSM       H13A           25.1158894470      -21.7424362583       22.3454579537  MEMB      69              0.0000000000
      7678        69  OSM       H13B           25.9583588409      -22.0110662578       23.8508278674  MEMB      69              0.0000000000
      7679        69  OSM       H13C           26.3598888151      -22.9903574903       22.4720428082  MEMB      69              0.0000000000
      7680        69  OSM       C12            27.5456974068      -21.1786152749       20.9662937311  MEMB      69              0.0000000000
      7681        69  OSM       H12A           26.8165470092      -20.7532074743       20.2957730862  MEMB      69              0.0000000000
      7682        69  OSM       H12B           27.5858608064      -22.2457817357       20.7147926997  MEMB      69              0.0000000000
      7683        69  OSM       C11            28.8552300232      -20.5192267427       20.5289242153  MEMB      69              0.0000000000
      7684        69  OSM       H11A           29.0956103750      -20.9914361064       19.5397013707  MEMB      69              0.0000000000
      7685        69  OSM       H11B           29.6706871564      -20.7708661455       21.2505795991  MEMB      69              0.0000000000
      7686        69  OSM       P              30.1699573021      -18.5507581261       19.7320431605  MEMB      69              0.0000000000
      7687        69  OSM       O13            30.4519332606      -17.2330482704       20.2908226564  MEMB      69              0.0000000000
      7688        69  OSM       O14            31.1849729534      -19.6313661765       19.9010875927  MEMB      69              0.0000000000
      7689        69  OSM       O11            29.7936676699      -18.4260804385       18.1842679972  MEMB      69              0.0000000000
      7690        69  OSM       O12            28.7832598657      -19.1078150670       20.3724279671  MEMB      69              0.0000000000
      7691        69  OSM       C1S            30.4050321334      -19.4079274931       17.3299440872  MEMB      69              0.0000000000
      7692        69  OSM       H1S            29.9997380606      -20.4048549406       17.5974434413  MEMB      69              0.0000000000
      7693        69  OSM       H1T            31.5179955604      -19.4035771438       17.4123774654  MEMB      69              0.0000000000
      7694        69  OSM       NF             30.7000100696      -20.0846766571       14.9203798886  MEMB      69              0.0000000000
      7695        69  OSM       HNF            31.3635406052      -19.7434736896       14.3027168579  MEMB      69              0.0000000000
      7696        69  OSM       C2S            30.0780666487      -19.1926905453       15.8255446878  MEMB      69              0.0000000000
      7697        69  OSM       H2S            28.9599816133      -19.2703579700       15.7386591620  MEMB      69              0.0000000000
      7698        69  OSM       C3S            30.5150816778      -17.8611974785       15.3672195560  MEMB      69              0.0000000000
      7699        69  OSM       H3S            31.5760646284      -17.6130288556       15.5101689280  MEMB      69              0.0000000000
      7700        69  OSM       O3             29.6672987557      -16.9650300012       16.0428301776  MEMB      69              0.0000000000
      7701        69  OSM       HO3            29.3940143094      -17.4003216934       16.8742232989  MEMB      69              0.0000000000
      7702        69  OSM       C4S            30.3198052880      -17.7106561945       13.8770340469  MEMB      69              0.0000000000
      7703        69  OSM       H4S            29.3980254176      -17.8217134854       13.5786856734  MEMB      69              0.0000000000
      7704        69  OSM       C5S            30.9273537198      -17.7245961191       12.7194588858  MEMB      69              0.0000000000
      7705        69  OSM       H5S            31.9189889634      -17.9001056421       12.7416337601  MEMB      69              0.0000000000
      7706        69  OSM       C6S            30.4174855688      -17.5111734017       11.3428280508  MEMB      69              0.0000000000
      7707        69  OSM       H6S            31.0319134133      -16.8195268987       10.7288587175  MEMB      69              0.0000000000
      7708        69  OSM       H6T            29.6434606795      -16.8365438001       11.4575772286  MEMB      69              0.0000000000
      7709        69  OSM       C7S            30.0773776873      -18.8171336968       10.6410470738  MEMB      69              0.0000000000
      7710        69  OSM       H7S            29.5577500629      -19.5241173500       11.3152893821  MEMB      69              0.0000000000
      7711        69  OSM       H7T            31.0724859534      -19.1945763459       10.3327658438  MEMB      69              0.0000000000
      7712        69  OSM       C8S            29.2323613262      -18.6247289697        9.3998902369  MEMB      69              0.0000000000
      7713        69  OSM       H8S            29.7082461951      -17.8465009506        8.8613821900  MEMB      69              0.0000000000
      7714        69  OSM       H8T            28.2213564263      -18.4554011969        9.5209899708  MEMB      69              0.0000000000
      7715        69  OSM       C9S            28.8907286264      -19.7127982431        8.4605349706  MEMB      69              0.0000000000
      7716        69  OSM       H9S            28.5376652769      -20.6093824383        9.0266319579  MEMB      69              0.0000000000
      7717        69  OSM       H9T            29.8824554799      -19.6643534743        7.9612364873  MEMB      69              0.0000000000
      7718        69  OSM       C10S           28.0183240623      -19.5381998899        7.2266960801  MEMB      69              0.0000000000
      7719        69  OSM       H10S           28.5921671803      -18.7967252981        6.6067779005  MEMB      69              0.0000000000
      7720        69  OSM       H10T           27.0231992714      -19.2138764446        7.5439667162  MEMB      69              0.0000000000
      7721        69  OSM       C11S           27.6503028944      -20.7462252630        6.4072028236  MEMB      69              0.0000000000
      7722        69  OSM       H11S           27.6375140754      -21.6893874944        6.9799630352  MEMB      69              0.0000000000
      7723        69  OSM       H11T           28.3209366422      -20.7020700314        5.5604492868  MEMB      69              0.0000000000
      7724        69  OSM       C12S           26.6945497394      -20.6199677192        5.2688709804  MEMB      69              0.0000000000
      7725        69  OSM       H12S           26.8970126119      -19.6462535674        4.7675395648  MEMB      69              0.0000000000
      7726        69  OSM       H12T           25.7782996935      -20.5590445255        5.8147075472  MEMB      69              0.0000000000
      7727        69  OSM       C13S           26.7591708684      -21.7170793513        4.1875601152  MEMB      69              0.0000000000
      7728        69  OSM       H13S           26.5217031948      -22.6531597717        4.4862581648  MEMB      69              0.0000000000
      7729        69  OSM       H13T           27.6820322887      -22.2450937956        3.9558491114  MEMB      69              0.0000000000
      7730        69  OSM       C14S           25.8355755928      -21.6307329087        3.0096323178  MEMB      69              0.0000000000
      7731        69  OSM       H14S           24.8063650589      -21.3322879680        3.3096189638  MEMB      69              0.0000000000
      7732        69  OSM       H14T           25.7963563985      -22.6533626025        2.5626787480  MEMB      69              0.0000000000
      7733        69  OSM       C15S           26.5185849189      -20.7138227475        2.0476799684  MEMB      69              0.0000000000
      7734        69  OSM       H15S           27.5700213728      -20.9713313764        1.8878441737  MEMB      69              0.0000000000
      7735        69  OSM       H15T           26.7826401322      -19.8416889753        2.6121793494  MEMB      69              0.0000000000
      7736        69  OSM       C16S           25.7460052994      -20.5345248672        0.7606313458  MEMB      69              0.0000000000
      7737        69  OSM       H16S           25.3249870219      -19.5466427543        0.5879004551  MEMB      69              0.0000000000
      7738        69  OSM       H16T           24.8506944941      -21.1986058473        0.8020064280  MEMB      69              0.0000000000
      7739        69  OSM       C17S           26.6013214623      -20.8080131786       -0.4649138451  MEMB      69              0.0000000000
      7740        69  OSM       H17S           26.0478182873      -20.4014717993       -1.3447388085  MEMB      69              0.0000000000
      7741        69  OSM       H17T           26.6631851273      -21.8999076915       -0.4590931600  MEMB      69              0.0000000000
      7742        69  OSM       C18S           28.0226398803      -20.2489387657       -0.5116894642  MEMB      69              0.0000000000
      7743        69  OSM       H18S           28.5338092401      -20.4469490966       -1.4794219699  MEMB      69              0.0000000000
      7744        69  OSM       H18T           28.6830953528      -20.5737441675        0.3120039153  MEMB      69              0.0000000000
      7745        69  OSM       H18U           27.9053846226      -19.1838205576       -0.3668024736  MEMB      69              0.0000000000
      7746        69  OSM       C1F            30.3279376349      -21.2596843899       14.8467718694  MEMB      69              0.0000000000
      7747        69  OSM       OF             29.6295765755      -21.5772952506       15.7508350715  MEMB      69              0.0000000000
      7748        69  OSM       C2F            30.6932598557      -21.9744302107       13.6497174720  MEMB      69              0.0000000000
      7749        69  OSM       H2F            31.2631735223      -22.9264681849       13.7613743021  MEMB      69              0.0000000000
      7750        69  OSM       H2G            31.1281260573      -21.2903267541       12.8908766043  MEMB      69              0.0000000000
      7751        69  OSM       C3F            29.4287666372      -22.3525322736       13.1075465240  MEMB      69              0.0000000000
      7752        69  OSM       H3F            28.4683749054      -21.7131108867       13.0773346610  MEMB      69              0.0000000000
      7753        69  OSM       H3G            29.3515206676      -23.4048722990       13.2810711993  MEMB      69              0.0000000000
      7754        69  OSM       C4F            29.6462028431      -22.8675590537       11.9125593278  MEMB      69              0.0000000000
      7755        69  OSM       H4F            29.8418256942      -21.8653375862       11.3856558796  MEMB      69              0.0000000000
      7756        69  OSM       H4G            28.5237741457      -22.6862424336       11.5749885219  MEMB      69              0.0000000000
      7757        69  OSM       C5F            30.5996697005      -24.5160581620       11.5202831659  MEMB      69              0.0000000000
      7758        69  OSM       H5F            30.0000489377      -25.4352937035       11.6602828894  MEMB      69              0.0000000000
      7759        69  OSM       H5G            31.4268404605      -24.2585344996       12.1389288458  MEMB      69              0.0000000000
      7760        69  OSM       C6F            31.4677722953      -25.0735782548        9.8936404614  MEMB      69              0.0000000000
      7761        69  OSM       H6F            30.8993292822      -24.9853105054        8.7910475182  MEMB      69              0.0000000000
      7762        69  OSM       H6G            31.2214423705      -26.1265677697        9.7268947977  MEMB      69              0.0000000000
      7763        69  OSM       C7F            32.7535421723      -24.0518212831        9.4397986663  MEMB      69              0.0000000000
      7764        69  OSM       H7F            32.9838464530      -24.0090045593        8.3011712234  MEMB      69              0.0000000000
      7765        69  OSM       H7G            33.4828847932      -24.2377944990       10.1866021617  MEMB      69              0.0000000000
      7766        69  OSM       C8F            32.9723810851      -22.4358823476       10.0242552976  MEMB      69              0.0000000000
      7767        69  OSM       H8F            32.3876718033      -22.1370032197       10.9167543948  MEMB      69              0.0000000000
      7768        69  OSM       H8G            32.3194484291      -21.5617776659        9.7804294448  MEMB      69              0.0000000000
      7769        69  OSM       C9F            33.6562592852      -21.3441138429        9.4561363684  MEMB      69              0.0000000000
      7770        69  OSM       H9F            34.0653927040      -21.0568385118       10.3328875076  MEMB      69              0.0000000000
      7771        69  OSM       C10F           33.7997919411      -20.6898310952        8.3433717904  MEMB      69              0.0000000000
      7772        69  OSM       H10F           34.7059921849      -21.1625429902        8.0772223815  MEMB      69              0.0000000000
      7773        69  OSM       C11F           33.3102265745      -20.7626393470        7.0601462982  MEMB      69              0.0000000000
      7774        69  OSM       H11F           33.0221131445      -21.7907517595        7.1808620495  MEMB      69              0.0000000000
      7775        69  OSM       H11G           33.9499870445      -21.2707899853        6.3023272200  MEMB      69              0.0000000000
      7776        69  OSM       C12F           32.6564674924      -19.3994452569        6.5889905042  MEMB      69              0.0000000000
      7777        69  OSM       H12F           33.3107142531      -18.5319265468        6.3548388641  MEMB      69              0.0000000000
      7778        69  OSM       H12G           31.8714651635      -18.9429595509        7.1954328829  MEMB      69              0.0000000000
      7779        69  OSM       C13F           32.2816223807      -19.6749877286        5.1918806795  MEMB      69              0.0000000000
      7780        69  OSM       H13F           31.3071066992      -19.9192320609        5.4871415076  MEMB      69              0.0000000000
      7781        69  OSM       H13G           32.8722141806      -20.5499491386        4.8338998872  MEMB      69              0.0000000000
      7782        69  OSM       C14F           31.8881859135      -18.7268070372        4.1236937731  MEMB      69              0.0000000000
      7783        69  OSM       H14F           31.6887040010      -19.3684112070        3.2581132205  MEMB      69              0.0000000000
      7784        69  OSM       H14G           32.7301811354      -18.0815159036        3.8545609321  MEMB      69              0.0000000000
      7785        69  OSM       C15F           30.5672258005      -18.0723966910        4.4695295759  MEMB      69              0.0000000000
      7786        69  OSM       H15F           30.6640723489      -17.5315473606        5.3906812192  MEMB      69              0.0000000000
      7787        69  OSM       H15G           29.7049472251      -18.7296069800        4.7055096583  MEMB      69              0.0000000000
      7788        69  OSM       C16F           30.1277908220      -17.2619788793        3.3340878745  MEMB      69              0.0000000000
      7789        69  OSM       H16F           30.8938534487      -16.4690095641        3.1948018404  MEMB      69              0.0000000000
      7790        69  OSM       H16G           29.1380445721      -16.8269074609        3.5725092495  MEMB      69              0.0000000000
      7791        69  OSM       C17F           30.0734230196      -18.1147172081        2.0766232149  MEMB      69              0.0000000000
      7792        69  OSM       H17F           29.1450660678      -18.7180991840        1.8654222408  MEMB      69              0.0000000000
      7793        69  OSM       H17G           30.8721406258      -18.7453526470        1.8272155842  MEMB      69              0.0000000000
      7794        69  OSM       C18F           30.4418972809      -17.4353662676        0.9194870476  MEMB      69              0.0000000000
      7795        69  OSM       H18F           31.0410534411      -16.5164408158        0.5742697314  MEMB      69              0.0000000000
      7796        69  OSM       H18G           29.6372415371      -16.9276943264        1.4259140689  MEMB      69              0.0000000000
      7797        69  OSM       H18H           29.9120520226      -18.0105019223        0.1230296308  MEMB      69              0.0000000000
      7798        70  OSM       N             -24.7743947046       22.5242947540       21.2507604516  MEMB      70              0.0000000000
      7799        70  OSM       C15           -23.6487655404       22.8761866149       20.3702168792  MEMB      70              0.0000000000
      7800        70  OSM       H15A          -23.0816626591       23.7240981528       20.7638609735  MEMB      70              0.0000000000
      7801        70  OSM       H15B          -23.9393991586       23.1339545038       19.3626965668  MEMB      70              0.0000000000
      7802        70  OSM       H15C          -22.9188388163       22.0570466467       20.3554746746  MEMB      70              0.0000000000
      7803        70  OSM       C14           -24.1462266337       21.9501473821       22.4759761449  MEMB      70              0.0000000000
      7804        70  OSM       H14A          -24.9073260961       21.7069043188       23.2020463413  MEMB      70              0.0000000000
      7805        70  OSM       H14B          -23.4431321776       22.6389955025       22.9117843757  MEMB      70              0.0000000000
      7806        70  OSM       H14C          -23.6144729477       21.0276209488       22.2151953515  MEMB      70              0.0000000000
      7807        70  OSM       C13           -25.6012608099       23.7298265456       21.5463833886  MEMB      70              0.0000000000
      7808        70  OSM       H13A          -26.3960094558       23.4721520037       22.2519223148  MEMB      70              0.0000000000
      7809        70  OSM       H13B          -26.1498098194       24.0280883751       20.6504799148  MEMB      70              0.0000000000
      7810        70  OSM       H13C          -25.0593620017       24.5780504415       21.9242306018  MEMB      70              0.0000000000
      7811        70  OSM       C12           -25.7125381007       21.4701985712       20.6373537367  MEMB      70              0.0000000000
      7812        70  OSM       H12A          -25.1291360432       20.6025989778       20.3330779896  MEMB      70              0.0000000000
      7813        70  OSM       H12B          -26.1358553226       21.8877841697       19.7271956657  MEMB      70              0.0000000000
      7814        70  OSM       C11           -26.9136820732       20.9501368850       21.5173797410  MEMB      70              0.0000000000
      7815        70  OSM       H11A          -26.5294006267       20.6488922878       22.5093309908  MEMB      70              0.0000000000
      7816        70  OSM       H11B          -27.3397147559       20.0056392155       21.1145795049  MEMB      70              0.0000000000
      7817        70  OSM       P             -29.0964163536       22.1934395884       20.6466429964  MEMB      70              0.0000000000
      7818        70  OSM       O13           -30.3905185400       22.4411014708       21.3186569988  MEMB      70              0.0000000000
      7819        70  OSM       O14           -28.5133591768       23.1656247965       19.7006910816  MEMB      70              0.0000000000
      7820        70  OSM       O11           -29.2890254275       20.8035124413       19.9129429057  MEMB      70              0.0000000000
      7821        70  OSM       O12           -27.9509411700       21.9036374693       21.7293698982  MEMB      70              0.0000000000
      7822        70  OSM       C1S           -30.2118935710       20.6299176642       18.8218934307  MEMB      70              0.0000000000
      7823        70  OSM       H1S           -31.1522194173       21.1845384637       18.9957006624  MEMB      70              0.0000000000
      7824        70  OSM       H1T           -30.4546373479       19.5456004709       18.7233937574  MEMB      70              0.0000000000
      7825        70  OSM       NF            -30.4590841186       20.9175889063       16.2850746998  MEMB      70              0.0000000000
      7826        70  OSM       HNF           -30.3455228130       20.1830444145       15.6310135260  MEMB      70              0.0000000000
      7827        70  OSM       C2S           -29.5994722442       21.0376429570       17.4422734085  MEMB      70              0.0000000000
      7828        70  OSM       H2S           -29.0732640173       22.0159254941       17.5469200143  MEMB      70              0.0000000000
      7829        70  OSM       C3S           -28.5253764089       20.1452337086       17.1948072313  MEMB      70              0.0000000000
      7830        70  OSM       H3S           -29.1046356317       19.1935197073       16.9343766202  MEMB      70              0.0000000000
      7831        70  OSM       O3            -27.6263709376       20.0108057048       18.3247420695  MEMB      70              0.0000000000
      7832        70  OSM       HO3           -28.1262541224       20.1952699607       19.1407992557  MEMB      70              0.0000000000
      7833        70  OSM       C4S           -27.7793479570       20.5951557855       15.9298074474  MEMB      70              0.0000000000
      7834        70  OSM       H4S           -27.7910407619       19.8980120498       15.0625918630  MEMB      70              0.0000000000
      7835        70  OSM       C5S           -26.8509834045       21.5648704254       15.9783253393  MEMB      70              0.0000000000
      7836        70  OSM       H5S           -26.5121760717       21.8743135816       16.9757498197  MEMB      70              0.0000000000
      7837        70  OSM       C6S           -26.0632826517       22.1362460658       14.8420780058  MEMB      70              0.0000000000
      7838        70  OSM       H6S           -25.2635109232       21.5613041784       14.5393798550  MEMB      70              0.0000000000
      7839        70  OSM       H6T           -25.4295785021       22.9904795384       15.1314828291  MEMB      70              0.0000000000
      7840        70  OSM       C7S           -26.9215724708       22.2885311949       13.5816288544  MEMB      70              0.0000000000
      7841        70  OSM       H7S           -27.6926714769       23.0244559223       13.8280214588  MEMB      70              0.0000000000
      7842        70  OSM       H7T           -27.4279894470       21.3190244123       13.3060676936  MEMB      70              0.0000000000
      7843        70  OSM       C8S           -26.1773025697       22.8730008083       12.3427286960  MEMB      70              0.0000000000
      7844        70  OSM       H8S           -25.2013033529       23.3856744109       12.6048897321  MEMB      70              0.0000000000
      7845        70  OSM       H8T           -26.8862005354       23.4401701851       11.7434549668  MEMB      70              0.0000000000
      7846        70  OSM       C9S           -25.8202625845       21.7753345886       11.3916648836  MEMB      70              0.0000000000
      7847        70  OSM       H9S           -26.5425412510       20.9682849042       11.1730478870  MEMB      70              0.0000000000
      7848        70  OSM       H9T           -25.3979677519       21.5750979302       12.3872983013  MEMB      70              0.0000000000
      7849        70  OSM       C10S          -24.7312712637       21.8435268744       10.2870760842  MEMB      70              0.0000000000
      7850        70  OSM       H10S          -24.2136998897       20.9383810549        9.9467379796  MEMB      70              0.0000000000
      7851        70  OSM       H10T          -23.8439803473       22.4281695673       10.5490402549  MEMB      70              0.0000000000
      7852        70  OSM       C11S          -25.4753115931       22.1562691114        9.0193300174  MEMB      70              0.0000000000
      7853        70  OSM       H11S          -26.1205780271       22.9940339513        9.3473788181  MEMB      70              0.0000000000
      7854        70  OSM       H11T          -26.1307752288       21.2783072018        8.7824598854  MEMB      70              0.0000000000
      7855        70  OSM       C12S          -24.5689842592       22.5782052471        7.8583553428  MEMB      70              0.0000000000
      7856        70  OSM       H12S          -23.8143511182       21.7935162596        7.6518623902  MEMB      70              0.0000000000
      7857        70  OSM       H12T          -23.9644284808       23.4397464904        8.2340346465  MEMB      70              0.0000000000
      7858        70  OSM       C13S          -25.3823051066       22.9251147629        6.5771303905  MEMB      70              0.0000000000
      7859        70  OSM       H13S          -24.8089904372       23.5731693806        5.8790436986  MEMB      70              0.0000000000
      7860        70  OSM       H13T          -26.2526691527       23.5290599785        6.9028520267  MEMB      70              0.0000000000
      7861        70  OSM       C14S          -25.8652442313       21.7138560111        5.7316104003  MEMB      70              0.0000000000
      7862        70  OSM       H14S          -26.1694201506       20.8702492483        6.3869303722  MEMB      70              0.0000000000
      7863        70  OSM       H14T          -25.0020225353       21.3565922697        5.1316606083  MEMB      70              0.0000000000
      7864        70  OSM       C15S          -27.0050827964       21.9917393720        4.7230949388  MEMB      70              0.0000000000
      7865        70  OSM       H15S          -26.7384750826       22.8268592140        4.0348269964  MEMB      70              0.0000000000
      7866        70  OSM       H15T          -27.9221139413       22.2979703511        5.2701770414  MEMB      70              0.0000000000
      7867        70  OSM       C16S          -27.2750687208       20.7955866770        3.7859008472  MEMB      70              0.0000000000
      7868        70  OSM       H16S          -28.2910804250       20.8991442388        3.3553291146  MEMB      70              0.0000000000
      7869        70  OSM       H16T          -27.2791675979       19.8297847350        4.3398672689  MEMB      70              0.0000000000
      7870        70  OSM       C17S          -26.2569613253       20.8281701911        2.6292531162  MEMB      70              0.0000000000
      7871        70  OSM       H17S          -25.2413296724       20.6150449785        3.0355032984  MEMB      70              0.0000000000
      7872        70  OSM       H17T          -26.2528514260       21.8347826616        2.1603124285  MEMB      70              0.0000000000
      7873        70  OSM       C18S          -26.4780573643       19.8530380377        1.4973305828  MEMB      70              0.0000000000
      7874        70  OSM       H18S          -25.6472230265       19.9002840769        0.7667816043  MEMB      70              0.0000000000
      7875        70  OSM       H18T          -27.4681630407       19.9800400119        1.0016489965  MEMB      70              0.0000000000
      7876        70  OSM       H18U          -26.3574275872       18.8779728052        1.9525946101  MEMB      70              0.0000000000
      7877        70  OSM       C1F           -31.3963002195       21.7808946048       16.2414035621  MEMB      70              0.0000000000
      7878        70  OSM       OF            -31.4257698221       22.5771879739       17.1326924278  MEMB      70              0.0000000000
      7879        70  OSM       C2F           -32.4299465067       21.6766098631       15.1901124523  MEMB      70              0.0000000000
      7880        70  OSM       H2F           -32.9913280699       22.6065299271       15.3011816045  MEMB      70              0.0000000000
      7881        70  OSM       H2G           -33.1706552109       20.9236976724       15.5020426083  MEMB      70              0.0000000000
      7882        70  OSM       C3F           -31.8836594929       21.4018684006       13.7575439627  MEMB      70              0.0000000000
      7883        70  OSM       H3F           -31.4497060958       20.4010504158       13.6602836456  MEMB      70              0.0000000000
      7884        70  OSM       H3G           -31.0811263969       22.1562253399       13.5349090136  MEMB      70              0.0000000000
      7885        70  OSM       C4F           -33.0102689652       21.3718203494       12.6999750282  MEMB      70              0.0000000000
      7886        70  OSM       H4F           -33.7234214552       22.0695021388       13.1590844797  MEMB      70              0.0000000000
      7887        70  OSM       H4G           -33.7683896582       20.6007871014       12.7635990024  MEMB      70              0.0000000000
      7888        70  OSM       C5F           -32.5795660920       21.5683223403       11.1923150527  MEMB      70              0.0000000000
      7889        70  OSM       H5F           -33.4797388315       21.8004303130       10.5733527701  MEMB      70              0.0000000000
      7890        70  OSM       H5G           -32.1325695820       20.5981758635       10.9262832085  MEMB      70              0.0000000000
      7891        70  OSM       C6F           -31.3500717516       22.4207503882       10.7557895764  MEMB      70              0.0000000000
      7892        70  OSM       H6F           -30.5095773280       22.3859328465       11.4473323444  MEMB      70              0.0000000000
      7893        70  OSM       H6G           -31.3610600300       23.3707029717       11.0699373283  MEMB      70              0.0000000000
      7894        70  OSM       C7F           -31.0624721758       22.7509568259        9.2642482770  MEMB      70              0.0000000000
      7895        70  OSM       H7F           -30.7137613656       21.7733942690        8.9283706719  MEMB      70              0.0000000000
      7896        70  OSM       H7G           -30.2287730704       23.5015773435        9.2092161246  MEMB      70              0.0000000000
      7897        70  OSM       C8F           -32.1963514032       23.2557527967        8.3257225423  MEMB      70              0.0000000000
      7898        70  OSM       H8F           -32.5532257292       24.2023878051        8.6933574882  MEMB      70              0.0000000000
      7899        70  OSM       H8G           -33.1075404947       22.6349388164        8.4155315690  MEMB      70              0.0000000000
      7900        70  OSM       C9F           -31.8181976889       23.5327992252        6.8891777406  MEMB      70              0.0000000000
      7901        70  OSM       H9F           -31.5181642615       24.5665294419        6.6538120052  MEMB      70              0.0000000000
      7902        70  OSM       C10F          -31.6612891481       22.6066728449        5.9392662847  MEMB      70              0.0000000000
      7903        70  OSM       H10F          -31.3721219832       22.9235312009        4.9238889129  MEMB      70              0.0000000000
      7904        70  OSM       C11F          -31.8375145117       21.1324829170        6.1806450989  MEMB      70              0.0000000000
      7905        70  OSM       H11F          -32.2518197999       20.9260707753        7.1860684013  MEMB      70              0.0000000000
      7906        70  OSM       H11G          -30.8402858213       20.6406091174        6.1010074473  MEMB      70              0.0000000000
      7907        70  OSM       C12F          -32.7895223459       20.3707661234        5.2796550170  MEMB      70              0.0000000000
      7908        70  OSM       H12F          -33.7613632646       20.9108976742        5.1799297917  MEMB      70              0.0000000000
      7909        70  OSM       H12G          -32.9626617537       19.3648781801        5.7237720685  MEMB      70              0.0000000000
      7910        70  OSM       C13F          -32.0950757148       20.0767627934        3.9997661644  MEMB      70              0.0000000000
      7911        70  OSM       H13F          -32.2842025700       19.0369996596        3.6398058879  MEMB      70              0.0000000000
      7912        70  OSM       H13G          -30.9938998761       20.0533623566        4.0337771931  MEMB      70              0.0000000000
      7913        70  OSM       C14F          -32.4234301222       21.0693740063        2.9713041824  MEMB      70              0.0000000000
      7914        70  OSM       H14F          -32.4084997872       22.1641406372        3.1184473658  MEMB      70              0.0000000000
      7915        70  OSM       H14G          -33.5468257987       21.0411277830        2.8591393966  MEMB      70              0.0000000000
      7916        70  OSM       C15F          -31.4972237174       20.4322779856        1.8817197025  MEMB      70              0.0000000000
      7917        70  OSM       H15F          -32.0906463885       20.6481049982        1.2098315462  MEMB      70              0.0000000000
      7918        70  OSM       H15G          -31.7057230626       19.7254240688        1.0537555645  MEMB      70              0.0000000000
      7919        70  OSM       C16F          -30.2872063920       21.0173383614        1.3600968958  MEMB      70              0.0000000000
      7920        70  OSM       H16F          -30.1911517570       20.7417425918        0.2623179891  MEMB      70              0.0000000000
      7921        70  OSM       H16G          -29.6790133624       20.3878908350        2.0004809532  MEMB      70              0.0000000000
      7922        70  OSM       C17F          -30.1470052856       22.4453794289        1.6665574389  MEMB      70              0.0000000000
      7923        70  OSM       H17F          -29.0923284109       22.6327287678        1.3348433519  MEMB      70              0.0000000000
      7924        70  OSM       H17G          -30.3843588664       22.8244908277        2.6622358772  MEMB      70              0.0000000000
      7925        70  OSM       C18F          -30.9913477448       23.2716302899        0.8706001301  MEMB      70              0.0000000000
      7926        70  OSM       H18F          -30.9845440776       22.6455195002        0.0264808005  MEMB      70              0.0000000000
      7927        70  OSM       H18G          -30.3950224008       24.1989503370        0.8193118861  MEMB      70              0.0000000000
      7928        70  OSM       H18H          -32.0637448892       23.3703314193        0.7096950772  MEMB      70              0.0000000000
      7929        71  OSM       N             -34.6369834671        3.7279487872       20.9827244601  MEMB      71              0.0000000000
      7930        71  OSM       C15           -34.3429418828        5.0880875598       20.4582371822  MEMB      71              0.0000000000
      7931        71  OSM       H15A          -34.5718268154        5.1404819517       19.3970113874  MEMB      71              0.0000000000
      7932        71  OSM       H15B          -33.2686262209        5.2419105836       20.5571060304  MEMB      71              0.0000000000
      7933        71  OSM       H15C          -34.8416389975        5.8910926099       20.9795625047  MEMB      71              0.0000000000
      7934        71  OSM       C14           -34.1983706243        3.7423177232       22.3554790840  MEMB      71              0.0000000000
      7935        71  OSM       H14A          -33.2482379909        4.2245288226       22.4846410275  MEMB      71              0.0000000000
      7936        71  OSM       H14B          -34.2086884638        2.7361964286       22.7847870786  MEMB      71              0.0000000000
      7937        71  OSM       H14C          -34.9405080580        4.2974741842       22.8711010386  MEMB      71              0.0000000000
      7938        71  OSM       C13           -36.0719833754        3.3086113184       20.9491564147  MEMB      71              0.0000000000
      7939        71  OSM       H13A          -36.2627978049        2.2476905810       21.1258086860  MEMB      71              0.0000000000
      7940        71  OSM       H13B          -36.4286236742        3.4790009194       19.9278305478  MEMB      71              0.0000000000
      7941        71  OSM       H13C          -36.7389575309        3.9235820769       21.5453489880  MEMB      71              0.0000000000
      7942        71  OSM       C12           -33.7401383953        2.7585335499       20.2509716170  MEMB      71              0.0000000000
      7943        71  OSM       H12A          -32.8006321519        3.2742349300       20.1519110665  MEMB      71              0.0000000000
      7944        71  OSM       H12B          -34.1139146269        2.6067664236       19.2424255569  MEMB      71              0.0000000000
      7945        71  OSM       C11           -33.4784211923        1.3748277605       20.9054870045  MEMB      71              0.0000000000
      7946        71  OSM       H11A          -32.6441058819        1.4472093096       21.6410862800  MEMB      71              0.0000000000
      7947        71  OSM       H11B          -33.1043515106        0.6595068035       20.1252171975  MEMB      71              0.0000000000
      7948        71  OSM       P             -35.6199607940       -0.1835735759       21.0390106994  MEMB      71              0.0000000000
      7949        71  OSM       O13           -35.2368579885       -1.4690559741       21.6337916361  MEMB      71              0.0000000000
      7950        71  OSM       O14           -36.9750864335        0.3068233936       21.3511500887  MEMB      71              0.0000000000
      7951        71  OSM       O11           -35.3703797018       -0.0709611507       19.4824300783  MEMB      71              0.0000000000
      7952        71  OSM       O12           -34.6412510712        0.9191550817       21.5965128648  MEMB      71              0.0000000000
      7953        71  OSM       C1S           -36.0026459613        0.9548274276       18.7157642047  MEMB      71              0.0000000000
      7954        71  OSM       H1S           -35.7232803440        1.9503947998       19.0217197373  MEMB      71              0.0000000000
      7955        71  OSM       H1T           -37.0530300493        1.1884206851       18.9845795162  MEMB      71              0.0000000000
      7956        71  OSM       NF            -36.3856191721        1.8202903194       16.5797043507  MEMB      71              0.0000000000
      7957        71  OSM       HNF           -37.3436797480        1.6706130433       16.3783910065  MEMB      71              0.0000000000
      7958        71  OSM       C2S           -35.6970001408        0.7193323592       17.2149511416  MEMB      71              0.0000000000
      7959        71  OSM       H2S           -34.5977682013        0.7441364465       17.1220470307  MEMB      71              0.0000000000
      7960        71  OSM       C3S           -36.0891741771       -0.6679661227       16.6315553700  MEMB      71              0.0000000000
      7961        71  OSM       H3S           -37.0675218615       -0.9880892962       16.4492473993  MEMB      71              0.0000000000
      7962        71  OSM       O3            -35.4751451066       -1.7875994977       17.2413542994  MEMB      71              0.0000000000
      7963        71  OSM       HO3           -35.1565973071       -1.4014136903       18.0652624908  MEMB      71              0.0000000000
      7964        71  OSM       C4S           -35.9087060473       -0.6279769621       15.1582904351  MEMB      71              0.0000000000
      7965        71  OSM       H4S           -36.8110413419       -0.2889436396       14.6080088394  MEMB      71              0.0000000000
      7966        71  OSM       C5S           -34.7885433867       -1.0099414489       14.5939589981  MEMB      71              0.0000000000
      7967        71  OSM       H5S           -33.9802625056       -1.1773164609       15.2981168821  MEMB      71              0.0000000000
      7968        71  OSM       C6S           -34.3982453187       -1.1055283266       13.1704719749  MEMB      71              0.0000000000
      7969        71  OSM       H6S           -34.1369726000       -2.1745376854       12.9873024402  MEMB      71              0.0000000000
      7970        71  OSM       H6T           -33.6179794833       -0.4013124556       12.8510847769  MEMB      71              0.0000000000
      7971        71  OSM       C7S           -35.4730446618       -0.8419236817       12.2177976230  MEMB      71              0.0000000000
      7972        71  OSM       H7S           -35.7133943770        0.2404393337       12.2240134786  MEMB      71              0.0000000000
      7973        71  OSM       H7T           -36.3943383063       -1.1844371453       12.7362683546  MEMB      71              0.0000000000
      7974        71  OSM       C8S           -35.0950383732       -1.4334614421       10.8016631206  MEMB      71              0.0000000000
      7975        71  OSM       H8S           -35.7901250607       -1.7198372035        9.9969604119  MEMB      71              0.0000000000
      7976        71  OSM       H8T           -34.7868810220       -2.4874686728       10.8383594027  MEMB      71              0.0000000000
      7977        71  OSM       C9S           -34.3727499735       -0.4301146963        9.9426557534  MEMB      71              0.0000000000
      7978        71  OSM       H9S           -34.1244874003       -0.9592455553        8.9948224306  MEMB      71              0.0000000000
      7979        71  OSM       H9T           -33.5039077115       -0.1937666475       10.5748333478  MEMB      71              0.0000000000
      7980        71  OSM       C10S          -35.0684323012        0.8939735920        9.5753042906  MEMB      71              0.0000000000
      7981        71  OSM       H10S          -35.5331107886        1.3757145482       10.4618434858  MEMB      71              0.0000000000
      7982        71  OSM       H10T          -35.8792813883        0.7248900071        8.8311718329  MEMB      71              0.0000000000
      7983        71  OSM       C11S          -34.0292105698        1.8566226374        8.9876374205  MEMB      71              0.0000000000
      7984        71  OSM       H11S          -33.2219345087        1.9976612460        9.7499016401  MEMB      71              0.0000000000
      7985        71  OSM       H11T          -34.5060665105        2.8442606762        8.8263382603  MEMB      71              0.0000000000
      7986        71  OSM       C12S          -33.4407957396        1.3597725043        7.6494591926  MEMB      71              0.0000000000
      7987        71  OSM       H12S          -33.7289729056        0.3036465263        7.4642745830  MEMB      71              0.0000000000
      7988        71  OSM       H12T          -32.3318436871        1.3917925072        7.7255418406  MEMB      71              0.0000000000
      7989        71  OSM       C13S          -33.8501612801        2.2053174599        6.4336042096  MEMB      71              0.0000000000
      7990        71  OSM       H13S          -34.0525426297        3.2442309377        6.7824180360  MEMB      71              0.0000000000
      7991        71  OSM       H13T          -34.7839216609        1.8115825350        5.9712891267  MEMB      71              0.0000000000
      7992        71  OSM       C14S          -32.7289031449        2.4067719475        5.3957903799  MEMB      71              0.0000000000
      7993        71  OSM       H14S          -32.6588130268        1.5218328235        4.7180353453  MEMB      71              0.0000000000
      7994        71  OSM       H14T          -31.7804630725        2.5388554263        5.9410224444  MEMB      71              0.0000000000
      7995        71  OSM       C15S          -33.0213070854        3.6831966109        4.6011475288  MEMB      71              0.0000000000
      7996        71  OSM       H15S          -33.2835430287        4.5916559183        5.1720724585  MEMB      71              0.0000000000
      7997        71  OSM       H15T          -34.0320116028        3.3663996554        4.3265530661  MEMB      71              0.0000000000
      7998        71  OSM       C16S          -32.0438698589        4.1031770069        3.4645468820  MEMB      71              0.0000000000
      7999        71  OSM       H16S          -31.8569015591        3.3074448488        2.7031420101  MEMB      71              0.0000000000
      8000        71  OSM       H16T          -31.0355995370        4.2004945927        3.8987191308  MEMB      71              0.0000000000
      8001        71  OSM       C17S          -32.5278587972        5.4234820540        2.7674258375  MEMB      71              0.0000000000
      8002        71  OSM       H17S          -33.2434863363        5.9582827729        3.4107144814  MEMB      71              0.0000000000
      8003        71  OSM       H17T          -33.0897326891        5.3285690335        1.8010118257  MEMB      71              0.0000000000
      8004        71  OSM       C18S          -31.3825716953        6.3085465561        2.4099596304  MEMB      71              0.0000000000
      8005        71  OSM       H18S          -30.9072556377        5.7338318837        1.6287932703  MEMB      71              0.0000000000
      8006        71  OSM       H18T          -30.5931776970        6.3117143143        3.1675950950  MEMB      71              0.0000000000
      8007        71  OSM       H18U          -31.7062542712        7.3306371314        2.0958694328  MEMB      71              0.0000000000
      8008        71  OSM       C1F           -35.8508387424        3.0381709152       16.6717362077  MEMB      71              0.0000000000
      8009        71  OSM       OF            -34.7295854232        3.1847738499       17.1498947441  MEMB      71              0.0000000000
      8010        71  OSM       C2F           -36.7358814304        4.1872484461       16.2777207776  MEMB      71              0.0000000000
      8011        71  OSM       H2F           -36.9958583918        4.7434171347       17.1992546504  MEMB      71              0.0000000000
      8012        71  OSM       H2G           -37.6899925212        3.7744529083       15.8982405616  MEMB      71              0.0000000000
      8013        71  OSM       C3F           -36.0823656033        5.1354309434       15.2399667144  MEMB      71              0.0000000000
      8014        71  OSM       H3F           -35.0853568685        5.4491665287       15.6206927370  MEMB      71              0.0000000000
      8015        71  OSM       H3G           -36.6429577892        6.0954786750       15.1432336397  MEMB      71              0.0000000000
      8016        71  OSM       C4F           -35.9571443813        4.5100012085       13.8421669456  MEMB      71              0.0000000000
      8017        71  OSM       H4F           -35.4513529882        3.5340967609       13.8523948267  MEMB      71              0.0000000000
      8018        71  OSM       H4G           -35.4428488204        5.2345026528       13.1562994139  MEMB      71              0.0000000000
      8019        71  OSM       C5F           -37.2596563381        4.1184016181       13.1898044764  MEMB      71              0.0000000000
      8020        71  OSM       H5F           -37.7354523244        5.0489270033       13.3504965489  MEMB      71              0.0000000000
      8021        71  OSM       H5G           -38.0030675373        3.5334473378       13.7376230774  MEMB      71              0.0000000000
      8022        71  OSM       C6F           -37.0228685304        3.5805602495       11.7535439236  MEMB      71              0.0000000000
      8023        71  OSM       H6F           -36.2789720458        2.8067728243       11.7355884094  MEMB      71              0.0000000000
      8024        71  OSM       H6G           -36.6110980571        4.4123358857       11.1103097305  MEMB      71              0.0000000000
      8025        71  OSM       C7F           -38.2333772364        2.9123988175       11.0774408668  MEMB      71              0.0000000000
      8026        71  OSM       H7F           -38.8561349819        3.5585723070       11.7074896150  MEMB      71              0.0000000000
      8027        71  OSM       H7G           -39.0981115528        2.3410231004       11.3496013649  MEMB      71              0.0000000000
      8028        71  OSM       C8F           -38.1628379255        2.6862045090        9.5233856606  MEMB      71              0.0000000000
      8029        71  OSM       H8F           -37.4774044856        1.8640393788        9.4319286182  MEMB      71              0.0000000000
      8030        71  OSM       H8G           -37.7440768586        3.6243714440        9.0812109601  MEMB      71              0.0000000000
      8031        71  OSM       C9F           -39.3818982455        2.3649470004        8.6710353441  MEMB      71              0.0000000000
      8032        71  OSM       H9F           -40.2429633333        2.7827709008        9.0807321268  MEMB      71              0.0000000000
      8033        71  OSM       C10F          -39.7298941020        1.5878877781        7.6727001798  MEMB      71              0.0000000000
      8034        71  OSM       H10F          -40.7607055071        1.6074289052        7.2428349910  MEMB      71              0.0000000000
      8035        71  OSM       C11F          -38.6914904812        0.7150472801        7.1616023574  MEMB      71              0.0000000000
      8036        71  OSM       H11F          -39.2059490542       -0.1126371047        6.6731386738  MEMB      71              0.0000000000
      8037        71  OSM       H11G          -38.1379510254        0.3200041390        8.0431245839  MEMB      71              0.0000000000
      8038        71  OSM       C12F          -37.6312120053        1.4536772234        6.3645795687  MEMB      71              0.0000000000
      8039        71  OSM       H12F          -36.8871482693        0.6538393009        6.1068327649  MEMB      71              0.0000000000
      8040        71  OSM       H12G          -37.1323615511        2.2249632440        6.9776063103  MEMB      71              0.0000000000
      8041        71  OSM       C13F          -38.1376664797        2.3279409153        5.1992579234  MEMB      71              0.0000000000
      8042        71  OSM       H13F          -37.2586363172        2.8466501289        4.6948947743  MEMB      71              0.0000000000
      8043        71  OSM       H13G          -38.9976213127        2.9723674815        5.3529433945  MEMB      71              0.0000000000
      8044        71  OSM       C14F          -38.9060261981        1.5414934810        4.2101113184  MEMB      71              0.0000000000
      8045        71  OSM       H14F          -39.4769770952        0.6483902488        4.4429525248  MEMB      71              0.0000000000
      8046        71  OSM       H14G          -37.8778529954        1.1677699742        4.2765884355  MEMB      71              0.0000000000
      8047        71  OSM       C15F          -39.3609802187        2.2838491318        2.8925655809  MEMB      71              0.0000000000
      8048        71  OSM       H15F          -38.5857898728        3.0365613548        2.6305866292  MEMB      71              0.0000000000
      8049        71  OSM       H15G          -40.3427916551        2.5567609184        3.3249733273  MEMB      71              0.0000000000
      8050        71  OSM       C16F          -39.5988541177        1.6408114456        1.4808439493  MEMB      71              0.0000000000
      8051        71  OSM       H16F          -40.2876288628        2.2257535514        0.8475183530  MEMB      71              0.0000000000
      8052        71  OSM       H16G          -40.1791448227        0.7516991069        1.7361107265  MEMB      71              0.0000000000
      8053        71  OSM       C17F          -38.3969157002        1.2873713263        0.5418953234  MEMB      71              0.0000000000
      8054        71  OSM       H17F          -37.7766763747        0.3440273413        0.5102447542  MEMB      71              0.0000000000
      8055        71  OSM       H17G          -37.5194634563        1.9194539320        0.4699236928  MEMB      71              0.0000000000
      8056        71  OSM       C18F          -38.9204121704        0.5168355077       -0.4279840247  MEMB      71              0.0000000000
      8057        71  OSM       H18F          -38.4689300057       -0.4001080171       -0.9220169036  MEMB      71              0.0000000000
      8058        71  OSM       H18G          -39.1126550007        1.5453894930       -0.8722505260  MEMB      71              0.0000000000
      8059        71  OSM       H18H          -39.6918528539        0.4721205538       -1.1446878662  MEMB      71              0.0000000000
      8060        72  SAPC      N             -23.4398331833      -26.1464635846       21.6520650460  MEMB      72              0.0000000000
      8061        72  SAPC      C12           -23.7207824455      -24.6689582428       21.6740043736  MEMB      72              0.0000000000
      8062        72  SAPC      H12A          -22.8782600689      -24.1961418306       22.1536646435  MEMB      72              0.0000000000
      8063        72  SAPC      H12B          -24.6061340483      -24.5371456104       22.2750654122  MEMB      72              0.0000000000
      8064        72  SAPC      C13           -24.3154562295      -26.9117524091       20.6910328961  MEMB      72              0.0000000000
      8065        72  SAPC      H13A          -25.3590866498      -26.8620056568       20.9792444259  MEMB      72              0.0000000000
      8066        72  SAPC      H13B          -24.3232214076      -26.4159714979       19.7093980532  MEMB      72              0.0000000000
      8067        72  SAPC      H13C          -24.0370212343      -27.9388654819       20.5224550759  MEMB      72              0.0000000000
      8068        72  SAPC      C14           -22.0534013541      -26.2420893324       21.2247457379  MEMB      72              0.0000000000
      8069        72  SAPC      H14A          -21.8081692644      -25.6704827652       20.3319507879  MEMB      72              0.0000000000
      8070        72  SAPC      H14B          -21.3621664022      -25.9637148441       22.0037504752  MEMB      72              0.0000000000
      8071        72  SAPC      H14C          -21.8481590227      -27.2799962364       20.9609898707  MEMB      72              0.0000000000
      8072        72  SAPC      C15           -23.5347227535      -26.6982221414       23.0438151497  MEMB      72              0.0000000000
      8073        72  SAPC      H15A          -23.0258664775      -26.0434567581       23.7445054368  MEMB      72              0.0000000000
      8074        72  SAPC      H15B          -24.5646767783      -26.7643193911       23.3578472883  MEMB      72              0.0000000000
      8075        72  SAPC      H15C          -23.0674319095      -27.6671514492       23.1275986376  MEMB      72              0.0000000000
      8076        72  SAPC      C11           -23.9529271830      -23.9692913217       20.3322240960  MEMB      72              0.0000000000
      8077        72  SAPC      H11A          -23.1460139986      -24.1658825886       19.5906751916  MEMB      72              0.0000000000
      8078        72  SAPC      H11B          -24.0799110930      -22.8734568312       20.4532147710  MEMB      72              0.0000000000
      8079        72  SAPC      P             -25.5426391585      -24.5194174655       18.3746729254  MEMB      72              0.0000000000
      8080        72  SAPC      O13           -24.5127314678      -25.1151392261       17.4968959607  MEMB      72              0.0000000000
      8081        72  SAPC      O14           -26.8834970914      -25.1155631859       18.3450280956  MEMB      72              0.0000000000
      8082        72  SAPC      O12           -25.1571750614      -24.4688203711       19.8750473697  MEMB      72              0.0000000000
      8083        72  SAPC      O11           -25.4549744319      -22.9303023306       18.1021021517  MEMB      72              0.0000000000
      8084        72  SAPC      C1            -24.2690555935      -22.2460741112       17.6755242975  MEMB      72              0.0000000000
      8085        72  SAPC      HA            -24.0542771981      -21.4056127046       18.3687900742  MEMB      72              0.0000000000
      8086        72  SAPC      HB            -23.3962235200      -22.9303453912       17.6996966258  MEMB      72              0.0000000000
      8087        72  SAPC      C2            -24.3603736851      -21.6541693530       16.2417791395  MEMB      72              0.0000000000
      8088        72  SAPC      HS            -24.4589635226      -20.5499300677       16.3194979863  MEMB      72              0.0000000000
      8089        72  SAPC      O21           -25.4955093094      -22.2251557844       15.6142093326  MEMB      72              0.0000000000
      8090        72  SAPC      C21           -25.8876355195      -21.6598855315       14.5100895562  MEMB      72              0.0000000000
      8091        72  SAPC      O22           -25.5217123093      -20.6307620558       14.0758595834  MEMB      72              0.0000000000
      8092        72  SAPC      C22           -26.7674563489      -22.4503363064       13.7200476368  MEMB      72              0.0000000000
      8093        72  SAPC      H2R           -27.7844077633      -22.1764165801       14.0720227448  MEMB      72              0.0000000000
      8094        72  SAPC      H2S           -26.8730655165      -22.0735594359       12.6835708960  MEMB      72              0.0000000000
      8095        72  SAPC      C3            -23.0843249819      -21.9618789643       15.4339429879  MEMB      72              0.0000000000
      8096        72  SAPC      HX            -22.2439421792      -21.4810299525       15.9620453364  MEMB      72              0.0000000000
      8097        72  SAPC      HY            -23.1608833141      -21.5655199819       14.4018003154  MEMB      72              0.0000000000
      8098        72  SAPC      O31           -22.8841207531      -23.3636625797       15.4075098932  MEMB      72              0.0000000000
      8099        72  SAPC      C31           -21.7753732452      -23.7735464114       14.8947352933  MEMB      72              0.0000000000
      8100        72  SAPC      O32           -20.8476149676      -23.1078315528       14.4673231911  MEMB      72              0.0000000000
      8101        72  SAPC      C32           -21.8172084250      -25.2390355178       15.0502679166  MEMB      72              0.0000000000
      8102        72  SAPC      H2X           -22.0353977778      -25.4655360174       16.1259345349  MEMB      72              0.0000000000
      8103        72  SAPC      H2Y           -20.7699203156      -25.5489786975       14.8727877245  MEMB      72              0.0000000000
      8104        72  SAPC      C23           -26.2463736870      -23.9182573423       13.9315251355  MEMB      72              0.0000000000
      8105        72  SAPC      H3R           -27.0177324996      -24.6710448852       13.8428796423  MEMB      72              0.0000000000
      8106        72  SAPC      H3S           -25.9882997906      -24.2697421284       14.9520295154  MEMB      72              0.0000000000
      8107        72  SAPC      C24           -25.1990578078      -24.3718157467       13.0418869207  MEMB      72              0.0000000000
      8108        72  SAPC      H4R           -25.2515620289      -25.4754547961       13.2051443646  MEMB      72              0.0000000000
      8109        72  SAPC      H4S           -24.3455963695      -23.8148188020       13.4334908417  MEMB      72              0.0000000000
      8110        72  SAPC      C25           -25.3442539619      -24.1699026021       11.6224621831  MEMB      72              0.0000000000
      8111        72  SAPC      H5R           -26.0701584214      -24.9050064715       11.2556229812  MEMB      72              0.0000000000
      8112        72  SAPC      C26           -24.7884635260      -23.2231848479       10.8451165005  MEMB      72              0.0000000000
      8113        72  SAPC      H6R           -24.9943396780      -23.1968059763        9.7604413267  MEMB      72              0.0000000000
      8114        72  SAPC      C27           -23.8770096838      -22.1757132208       11.3478577702  MEMB      72              0.0000000000
      8115        72  SAPC      H7R           -24.2177866253      -21.8157044698       12.3342197274  MEMB      72              0.0000000000
      8116        72  SAPC      H7S           -23.8339373176      -21.3296646775       10.6372868231  MEMB      72              0.0000000000
      8117        72  SAPC      C28           -22.6033200573      -22.9347435600       11.5221852584  MEMB      72              0.0000000000
      8118        72  SAPC      H8R           -22.6524621737      -23.6831365253       12.3197468559  MEMB      72              0.0000000000
      8119        72  SAPC      C29           -21.5239879824      -22.9294015000       10.7505547636  MEMB      72              0.0000000000
      8120        72  SAPC      H9R           -20.7492687731      -23.6619764876       11.0018302942  MEMB      72              0.0000000000
      8121        72  SAPC      C210          -21.3241455043      -22.1391782072        9.4937620124  MEMB      72              0.0000000000
      8122        72  SAPC      H10R          -20.2842320822      -21.7265917135        9.4442239892  MEMB      72              0.0000000000
      8123        72  SAPC      H10S          -22.0192905525      -21.2792190451        9.4075809230  MEMB      72              0.0000000000
      8124        72  SAPC      C211          -21.5004528225      -23.1033036690        8.3692848604  MEMB      72              0.0000000000
      8125        72  SAPC      H11R          -20.7933398737      -23.9468659535        8.4392790341  MEMB      72              0.0000000000
      8126        72  SAPC      C212          -22.2899989266      -23.0163732595        7.2899765937  MEMB      72              0.0000000000
      8127        72  SAPC      H12R          -22.1950325348      -23.7864617950        6.5028170097  MEMB      72              0.0000000000
      8128        72  SAPC      C213          -23.2352443009      -21.8953196893        6.9444576663  MEMB      72              0.0000000000
      8129        72  SAPC      H13R          -23.7946717196      -21.6413414446        7.8561460376  MEMB      72              0.0000000000
      8130        72  SAPC      H13S          -23.9565388924      -22.3357226333        6.2286366220  MEMB      72              0.0000000000
      8131        72  SAPC      C214          -22.9177495841      -20.6046527658        6.2689851347  MEMB      72              0.0000000000
      8132        72  SAPC      H14R          -22.9555073538      -19.6781096625        6.8533154657  MEMB      72              0.0000000000
      8133        72  SAPC      C215          -22.2111351235      -20.5437646623        5.1729587506  MEMB      72              0.0000000000
      8134        72  SAPC      H15R          -22.3113684768      -19.6747117389        4.5293731043  MEMB      72              0.0000000000
      8135        72  SAPC      C216          -21.6265758383      -21.6642996582        4.4621089734  MEMB      72              0.0000000000
      8136        72  SAPC      H16R          -21.8188754261      -21.4790091620        3.4502651073  MEMB      72              0.0000000000
      8137        72  SAPC      H16S          -21.9974282117      -22.6606746284        4.7636981031  MEMB      72              0.0000000000
      8138        72  SAPC      C217          -20.3625912186      -21.7212501372        3.7212409852  MEMB      72              0.0000000000
      8139        72  SAPC      H17R          -19.7381353527      -21.2668087461        4.5153828274  MEMB      72              0.0000000000
      8140        72  SAPC      H17S          -20.0512233277      -21.0211094288        2.9382911978  MEMB      72              0.0000000000
      8141        72  SAPC      C218          -20.3827035963      -23.2007412485        3.2869258607  MEMB      72              0.0000000000
      8142        72  SAPC      H18R          -20.5088674626      -23.9432927133        4.0005387778  MEMB      72              0.0000000000
      8143        72  SAPC      H18S          -19.4369407273      -23.6776562044        3.3089417724  MEMB      72              0.0000000000
      8144        72  SAPC      C219          -20.6248300380      -23.5894566257        1.9039892884  MEMB      72              0.0000000000
      8145        72  SAPC      H19R          -19.7725447385      -24.1428849835        1.4819231008  MEMB      72              0.0000000000
      8146        72  SAPC      H19S          -20.7187208716      -22.6229032188        1.3918543679  MEMB      72              0.0000000000
      8147        72  SAPC      C220          -21.7552759208      -24.5126086392        2.0080535483  MEMB      72              0.0000000000
      8148        72  SAPC      H20R          -21.5298813804      -25.5664202604        2.1747902106  MEMB      72              0.0000000000
      8149        72  SAPC      H20S          -22.2811425980      -24.4146231857        1.0723810902  MEMB      72              0.0000000000
      8150        72  SAPC      H20T          -22.2744811123      -24.3131634640        2.9623483157  MEMB      72              0.0000000000
      8151        72  SAPC      C33           -22.8982839025      -25.8479905567       14.0841408233  MEMB      72              0.0000000000
      8152        72  SAPC      H3X           -22.7578611434      -25.4773355790       13.0523386642  MEMB      72              0.0000000000
      8153        72  SAPC      H3Y           -23.9013850109      -25.8402571415       14.5410358420  MEMB      72              0.0000000000
      8154        72  SAPC      C34           -22.8192108108      -27.3009552697       13.8354645609  MEMB      72              0.0000000000
      8155        72  SAPC      H4X           -23.1010920653      -27.7811929858       14.8167348904  MEMB      72              0.0000000000
      8156        72  SAPC      H4Y           -21.7636222423      -27.1452940631       13.4359280978  MEMB      72              0.0000000000
      8157        72  SAPC      C35           -23.3813529531      -28.3181768401       12.9249239732  MEMB      72              0.0000000000
      8158        72  SAPC      H5X           -24.4369119229      -28.1872441956       13.1785077291  MEMB      72              0.0000000000
      8159        72  SAPC      H5Y           -23.0975414163      -29.3665242772       13.2448424022  MEMB      72              0.0000000000
      8160        72  SAPC      C36           -22.8387962122      -28.0808561350       11.5398792408  MEMB      72              0.0000000000
      8161        72  SAPC      H6X           -23.0157761550      -29.0442952177       11.0105861624  MEMB      72              0.0000000000
      8162        72  SAPC      H6Y           -21.7561381979      -27.8425886157       11.4939584029  MEMB      72              0.0000000000
      8163        72  SAPC      C37           -23.5044939296      -26.8882286753       10.8990051066  MEMB      72              0.0000000000
      8164        72  SAPC      H7X           -23.1582821666      -25.8718265599       11.0589306029  MEMB      72              0.0000000000
      8165        72  SAPC      H7Y           -24.4150055551      -26.7973319295       11.5664684654  MEMB      72              0.0000000000
      8166        72  SAPC      C38           -23.6603496982      -27.1114970781        9.3648435497  MEMB      72              0.0000000000
      8167        72  SAPC      H8X           -24.0064321289      -28.1577356636        9.1768440265  MEMB      72              0.0000000000
      8168        72  SAPC      H8Y           -22.7657762624      -27.2821909151        8.7756736457  MEMB      72              0.0000000000
      8169        72  SAPC      C39           -24.5794156617      -26.0180538925        8.7563609831  MEMB      72              0.0000000000
      8170        72  SAPC      H9X           -24.1707804952      -25.0146859062        8.8819317608  MEMB      72              0.0000000000
      8171        72  SAPC      H9Y           -25.5000855771      -25.9851826747        9.4009472756  MEMB      72              0.0000000000
      8172        72  SAPC      C310          -24.9865628154      -26.2237895609        7.2732802357  MEMB      72              0.0000000000
      8173        72  SAPC      H10X          -25.5778700753      -27.1091885121        7.1071140799  MEMB      72              0.0000000000
      8174        72  SAPC      H10Y          -24.2372990931      -26.6536414136        6.6118659548  MEMB      72              0.0000000000
      8175        72  SAPC      C311          -25.4968143981      -24.9135307490        6.6614017873  MEMB      72              0.0000000000
      8176        72  SAPC      H11X          -24.6042616985      -24.3880712668        6.4343876911  MEMB      72              0.0000000000
      8177        72  SAPC      H11Y          -25.9662629215      -24.2043585676        7.3377063603  MEMB      72              0.0000000000
      8178        72  SAPC      C312          -26.1649150362      -24.9033262947        5.3107310726  MEMB      72              0.0000000000
      8179        72  SAPC      H12X          -26.8572321055      -24.0964708115        5.0002534809  MEMB      72              0.0000000000
      8180        72  SAPC      H12Y          -26.8971798581      -25.4628252807        5.6724474081  MEMB      72              0.0000000000
      8181        72  SAPC      C313          -25.8057444763      -25.9833629075        4.3602417104  MEMB      72              0.0000000000
      8182        72  SAPC      H13X          -26.5060853416      -26.3370887166        3.5718481868  MEMB      72              0.0000000000
      8183        72  SAPC      H13Y          -25.4346099877      -26.8858052378        4.8547494292  MEMB      72              0.0000000000
      8184        72  SAPC      C314          -25.0979335145      -25.2295850815        3.4662108626  MEMB      72              0.0000000000
      8185        72  SAPC      H14X          -24.6147906937      -26.0144230196        2.8611068624  MEMB      72              0.0000000000
      8186        72  SAPC      H14Y          -24.4201766652      -24.5943813586        4.0784466540  MEMB      72              0.0000000000
      8187        72  SAPC      C315          -26.0968657756      -24.4367823645        2.6260075314  MEMB      72              0.0000000000
      8188        72  SAPC      H15X          -26.5061542060      -23.5169165397        3.1162885154  MEMB      72              0.0000000000
      8189        72  SAPC      H15Y          -26.8957463609      -25.0345781000        2.1864082902  MEMB      72              0.0000000000
      8190        72  SAPC      C316          -25.2914580045      -24.0778794925        1.4856428931  MEMB      72              0.0000000000
      8191        72  SAPC      H16X          -24.9087591471      -24.7910726029        0.7526250546  MEMB      72              0.0000000000
      8192        72  SAPC      H16Y          -24.3540688255      -24.0484258915        2.0245947319  MEMB      72              0.0000000000
      8193        72  SAPC      C317          -25.8073876823      -22.8248782367        0.8895753993  MEMB      72              0.0000000000
      8194        72  SAPC      H17X          -26.8065091918      -22.9136040228        0.6389361356  MEMB      72              0.0000000000
      8195        72  SAPC      H17Y          -25.2054358461      -22.7014480047        0.0072889871  MEMB      72              0.0000000000
      8196        72  SAPC      C318          -26.2324300207      -21.5855944145        1.6078547113  MEMB      72              0.0000000000
      8197        72  SAPC      H18X          -26.9341456253      -21.5636673438        2.4266404832  MEMB      72              0.0000000000
      8198        72  SAPC      H18Y          -26.3101238914      -20.8323029380        0.8507625190  MEMB      72              0.0000000000
      8199        72  SAPC      H18Z          -25.5785647317      -21.0015405344        2.1507148641  MEMB      72              0.0000000000
      8200        73  OSM       N               1.6355503162      -37.2890542890       21.4471724512  MEMB      73              0.0000000000
      8201        73  OSM       C15             1.6289104635      -38.5463548370       22.3233415980  MEMB      73              0.0000000000
      8202        73  OSM       H15A            2.3588575108      -38.6259424448       23.1181338699  MEMB      73              0.0000000000
      8203        73  OSM       H15B            1.6276740766      -39.4179132300       21.6776176219  MEMB      73              0.0000000000
      8204        73  OSM       H15C            0.6600347014      -38.7342237180       22.8100139471  MEMB      73              0.0000000000
      8205        73  OSM       C14             3.0213203362      -37.1443992402       20.9502764292  MEMB      73              0.0000000000
      8206        73  OSM       H14A            3.7269756440      -37.6438519389       21.6026403672  MEMB      73              0.0000000000
      8207        73  OSM       H14B            3.2213646487      -36.0972045122       20.7767525537  MEMB      73              0.0000000000
      8208        73  OSM       H14C            3.0865934891      -37.7008564162       20.0037367652  MEMB      73              0.0000000000
      8209        73  OSM       C13             0.8219833433      -37.0619803262       20.1333897241  MEMB      73              0.0000000000
      8210        73  OSM       H13A           -0.2436598925      -37.2985284903       20.1983811651  MEMB      73              0.0000000000
      8211        73  OSM       H13B            0.9943202069      -37.7386783966       19.2983267470  MEMB      73              0.0000000000
      8212        73  OSM       H13C            0.6370664250      -36.0066300543       19.9281499454  MEMB      73              0.0000000000
      8213        73  OSM       C12             1.1972048871      -36.2519017719       22.4437374730  MEMB      73              0.0000000000
      8214        73  OSM       H12A            1.9444783687      -36.1932832112       23.2208794618  MEMB      73              0.0000000000
      8215        73  OSM       H12B            0.2841325196      -36.6145333258       22.9219677790  MEMB      73              0.0000000000
      8216        73  OSM       C11             0.8158419260      -34.8685025410       21.9257055703  MEMB      73              0.0000000000
      8217        73  OSM       H11A            0.7252696184      -34.1738462163       22.7735092528  MEMB      73              0.0000000000
      8218        73  OSM       H11B           -0.2016093435      -34.9061664555       21.4776763718  MEMB      73              0.0000000000
      8219        73  OSM       P               1.4971937416      -32.9856040457       20.3396862683  MEMB      73              0.0000000000
      8220        73  OSM       O13             1.5051758693      -32.0048170501       21.4544831904  MEMB      73              0.0000000000
      8221        73  OSM       O14             2.4381455106      -32.8791104151       19.2054833153  MEMB      73              0.0000000000
      8222        73  OSM       O11             0.0042922087      -33.0980495985       19.8230988775  MEMB      73              0.0000000000
      8223        73  OSM       O12             1.7752498586      -34.4033373428       21.0029850739  MEMB      73              0.0000000000
      8224        73  OSM       C1S            -0.6210011381      -33.8658328452       18.8069182729  MEMB      73              0.0000000000
      8225        73  OSM       H1S            -1.7143797720      -33.6537316444       18.8634906088  MEMB      73              0.0000000000
      8226        73  OSM       H1T            -0.5223845015      -34.9463384307       18.9990077032  MEMB      73              0.0000000000
      8227        73  OSM       NF              0.8893454731      -34.2583685849       16.8883287184  MEMB      73              0.0000000000
      8228        73  OSM       HNF             1.7223052287      -33.7039950929       16.9012869502  MEMB      73              0.0000000000
      8229        73  OSM       C2S            -0.2458474020      -33.5182809961       17.3234460269  MEMB      73              0.0000000000
      8230        73  OSM       H2S            -1.0968480775      -33.8160406357       16.6652756867  MEMB      73              0.0000000000
      8231        73  OSM       C3S            -0.0013599372      -32.0317207784       17.1062571138  MEMB      73              0.0000000000
      8232        73  OSM       H3S             0.8780419440      -31.6500178467       17.6636778961  MEMB      73              0.0000000000
      8233        73  OSM       O3             -1.1617013804      -31.3265921085       17.4841201441  MEMB      73              0.0000000000
      8234        73  OSM       HO3            -1.7206593259      -31.9678187660       17.9327675634  MEMB      73              0.0000000000
      8235        73  OSM       C4S             0.2959813316      -31.7789980884       15.6537613786  MEMB      73              0.0000000000
      8236        73  OSM       H4S            -0.3386701963      -32.3125532399       14.9396110865  MEMB      73              0.0000000000
      8237        73  OSM       C5S             1.3476964268      -31.1133989870       15.1725917171  MEMB      73              0.0000000000
      8238        73  OSM       H5S             2.1187484498      -30.7159337894       15.8637524227  MEMB      73              0.0000000000
      8239        73  OSM       C6S             1.5726322629      -30.8922455773       13.7043011860  MEMB      73              0.0000000000
      8240        73  OSM       H6S             2.6551560458      -30.9729774271       13.4704844181  MEMB      73              0.0000000000
      8241        73  OSM       H6T             1.2843285578      -29.8380568073       13.5134940902  MEMB      73              0.0000000000
      8242        73  OSM       C7S             0.6721589317      -31.5700620893       12.6693286095  MEMB      73              0.0000000000
      8243        73  OSM       H7S            -0.3542344843      -31.1510895351       12.7894712993  MEMB      73              0.0000000000
      8244        73  OSM       H7T             0.6563585546      -32.6669369294       12.8039352551  MEMB      73              0.0000000000
      8245        73  OSM       C8S             1.1063937167      -31.2568274506       11.2415397069  MEMB      73              0.0000000000
      8246        73  OSM       H8S             2.1481934532      -31.6177105888       11.1100238010  MEMB      73              0.0000000000
      8247        73  OSM       H8T             1.0821756245      -30.1547322368       11.1110335960  MEMB      73              0.0000000000
      8248        73  OSM       C9S             0.1575042851      -31.8961714048       10.2344275862  MEMB      73              0.0000000000
      8249        73  OSM       H9S            -0.8221009263      -31.4270630876       10.3522989094  MEMB      73              0.0000000000
      8250        73  OSM       H9T             0.0841528614      -32.9963778053       10.4021511786  MEMB      73              0.0000000000
      8251        73  OSM       C10S            0.5413126589      -31.7286991930        8.8022045101  MEMB      73              0.0000000000
      8252        73  OSM       H10S            0.6746681109      -30.7061574236        8.4326999135  MEMB      73              0.0000000000
      8253        73  OSM       H10T           -0.1601539772      -32.2898083434        8.1330308724  MEMB      73              0.0000000000
      8254        73  OSM       C11S            1.8610487988      -32.2974309764        8.6567196788  MEMB      73              0.0000000000
      8255        73  OSM       H11S            1.7908771480      -33.3088234719        9.0999077172  MEMB      73              0.0000000000
      8256        73  OSM       H11T            2.7057656429      -31.7258481439        9.0995463934  MEMB      73              0.0000000000
      8257        73  OSM       C12S            2.0252359958      -32.3420751560        7.2223135691  MEMB      73              0.0000000000
      8258        73  OSM       H12S            2.1671109904      -31.4520603034        6.5834494780  MEMB      73              0.0000000000
      8259        73  OSM       H12T            1.2109659363      -33.0589086987        6.8407366833  MEMB      73              0.0000000000
      8260        73  OSM       C13S            3.3554633858      -32.8198375111        7.1160116876  MEMB      73              0.0000000000
      8261        73  OSM       H13S            3.5737825879      -33.3847463057        8.0022980494  MEMB      73              0.0000000000
      8262        73  OSM       H13T            4.1751255574      -32.1781154696        6.8693860497  MEMB      73              0.0000000000
      8263        73  OSM       C14S            2.9591855090      -33.4678117265        5.9448445479  MEMB      73              0.0000000000
      8264        73  OSM       H14S            2.9335465684      -34.2005784658        5.3125035861  MEMB      73              0.0000000000
      8265        73  OSM       H14T            2.6997088071      -34.3372204032        6.7801348647  MEMB      73              0.0000000000
      8266        73  OSM       C15S            3.9250608500      -32.7748054438        4.7496055261  MEMB      73              0.0000000000
      8267        73  OSM       H15S            4.8951983846      -32.3115304499        4.9396173239  MEMB      73              0.0000000000
      8268        73  OSM       H15T            3.0935733146      -32.1522249639        4.4121879164  MEMB      73              0.0000000000
      8269        73  OSM       C16S            4.6610104001      -33.1826309729        3.3005153116  MEMB      73              0.0000000000
      8270        73  OSM       H16S            4.4959334304      -34.1436765633        3.3016337733  MEMB      73              0.0000000000
      8271        73  OSM       H16T            5.5354100451      -33.8548535726        3.0781826495  MEMB      73              0.0000000000
      8272        73  OSM       C17S            4.1512550280      -32.6473557718        1.9619472697  MEMB      73              0.0000000000
      8273        73  OSM       H17S            4.7013773580      -33.1050721416        1.0972783597  MEMB      73              0.0000000000
      8274        73  OSM       H17T            4.4135763034      -31.5971255510        2.1657389261  MEMB      73              0.0000000000
      8275        73  OSM       C18S            2.6867485832      -32.7170401410        1.5376401218  MEMB      73              0.0000000000
      8276        73  OSM       H18S            2.5899625429      -31.9921665169        0.8479847808  MEMB      73              0.0000000000
      8277        73  OSM       H18T            1.9519375166      -32.5429270688        2.3496494548  MEMB      73              0.0000000000
      8278        73  OSM       H18U            2.3884791964      -33.6064233967        0.9150387704  MEMB      73              0.0000000000
      8279        73  OSM       C1F             0.8729877691      -35.5735814561       16.7889241464  MEMB      73              0.0000000000
      8280        73  OSM       OF             -0.1452371971      -36.2243517798       16.9755504134  MEMB      73              0.0000000000
      8281        73  OSM       C2F             2.1815996026      -36.2301526099       16.5569876850  MEMB      73              0.0000000000
      8282        73  OSM       H2F             2.1351590576      -37.2357069023       17.0293604979  MEMB      73              0.0000000000
      8283        73  OSM       H2G             2.9766666039      -35.6226918183       17.0372597443  MEMB      73              0.0000000000
      8284        73  OSM       C3F             2.5200939664      -36.3902596715       15.0714010955  MEMB      73              0.0000000000
      8285        73  OSM       H3F             3.5342475423      -36.8468792267       15.0091180557  MEMB      73              0.0000000000
      8286        73  OSM       H3G             2.5144450939      -35.4215183678       14.5229064091  MEMB      73              0.0000000000
      8287        73  OSM       C4F             1.5723590992      -37.2817095019       14.3127807816  MEMB      73              0.0000000000
      8288        73  OSM       H4F             0.6048882958      -36.7402127246       14.1543079245  MEMB      73              0.0000000000
      8289        73  OSM       H4G             1.3507797409      -38.2268750126       14.8545182037  MEMB      73              0.0000000000
      8290        73  OSM       C5F             2.1773904750      -37.6108568522       12.9710369958  MEMB      73              0.0000000000
      8291        73  OSM       H5F             2.7881280805      -38.5396085385       13.0078771960  MEMB      73              0.0000000000
      8292        73  OSM       H5G             2.8138360069      -36.8149841035       12.5480366391  MEMB      73              0.0000000000
      8293        73  OSM       C6F             1.0602566451      -37.7538901379       12.0216173916  MEMB      73              0.0000000000
      8294        73  OSM       H6F             1.6506247722      -37.9624593387       11.1112194656  MEMB      73              0.0000000000
      8295        73  OSM       H6G             0.6819729903      -36.7956037101       11.6457348535  MEMB      73              0.0000000000
      8296        73  OSM       C7F             0.0169883364      -38.7771522173       12.6541872847  MEMB      73              0.0000000000
      8297        73  OSM       H7F            -0.5774131131      -38.4383629318       13.5072705799  MEMB      73              0.0000000000
      8298        73  OSM       H7G             0.5057051796      -39.7539325435       12.9112151473  MEMB      73              0.0000000000
      8299        73  OSM       C8F            -1.1271288673      -39.0825290041       11.8126349126  MEMB      73              0.0000000000
      8300        73  OSM       H8F            -1.8956203133      -39.9158944129       11.7567262710  MEMB      73              0.0000000000
      8301        73  OSM       H8G            -0.6399502706      -40.0511237679       11.5212745811  MEMB      73              0.0000000000
      8302        73  OSM       C9F            -1.4072075870      -37.5770566348       11.3175443243  MEMB      73              0.0000000000
      8303        73  OSM       H9F            -2.3582376926      -37.9594168399       11.7425450710  MEMB      73              0.0000000000
      8304        73  OSM       C10F           -1.2167435667      -36.5463672730       10.1960330485  MEMB      73              0.0000000000
      8305        73  OSM       H10F           -2.3476210263      -36.2178996081       10.0681805674  MEMB      73              0.0000000000
      8306        73  OSM       C11F           -0.3774276191      -36.6972328671        8.5913940087  MEMB      73              0.0000000000
      8307        73  OSM       H11F            0.4599788707      -36.0624069517        8.6138155916  MEMB      73              0.0000000000
      8308        73  OSM       H11G           -1.0220821045      -36.6510900023        7.6018085257  MEMB      73              0.0000000000
      8309        73  OSM       C12F            0.4649945356      -38.0039844745        7.6636523547  MEMB      73              0.0000000000
      8310        73  OSM       H12F           -0.0536097677      -38.9406615576        7.1947458817  MEMB      73              0.0000000000
      8311        73  OSM       H12G            1.0670278604      -38.5138690723        8.3477999114  MEMB      73              0.0000000000
      8312        73  OSM       C13F            1.4581503193      -38.0882261654        6.6591126289  MEMB      73              0.0000000000
      8313        73  OSM       H13F            1.7995687231      -39.1903200955        6.5844286952  MEMB      73              0.0000000000
      8314        73  OSM       H13G            2.2197536436      -37.4585021294        7.1176412580  MEMB      73              0.0000000000
      8315        73  OSM       C14F            0.5781112682      -37.6467859552        5.5404627554  MEMB      73              0.0000000000
      8316        73  OSM       H14F            0.5088728517      -36.5565437220        5.6344100331  MEMB      73              0.0000000000
      8317        73  OSM       H14G           -0.4367507287      -37.9973712707        5.6356222293  MEMB      73              0.0000000000
      8318        73  OSM       C15F            1.1375818369      -38.2663382359        4.3258599173  MEMB      73              0.0000000000
      8319        73  OSM       H15F            1.4391256630      -39.3311636730        4.3876289442  MEMB      73              0.0000000000
      8320        73  OSM       H15G            2.0694658004      -37.8762803678        4.6856398600  MEMB      73              0.0000000000
      8321        73  OSM       C16F            0.4482231127      -37.9382786556        2.8871249776  MEMB      73              0.0000000000
      8322        73  OSM       H16F           -0.6316298196      -37.9886938951        2.8443864149  MEMB      73              0.0000000000
      8323        73  OSM       H16G            0.8558985133      -38.6028430597        2.0967479967  MEMB      73              0.0000000000
      8324        73  OSM       C17F            0.1952128882      -36.5581419822        2.3326570344  MEMB      73              0.0000000000
      8325        73  OSM       H17F            1.0936168104      -36.2168564920        1.8036862157  MEMB      73              0.0000000000
      8326        73  OSM       H17G           -0.1409136753      -35.8418321810        3.1122078058  MEMB      73              0.0000000000
      8327        73  OSM       C18F           -0.5645927353      -36.5609106767        1.0886459177  MEMB      73              0.0000000000
      8328        73  OSM       H18F           -1.4729965836      -37.1057966005        1.1699368185  MEMB      73              0.0000000000
      8329        73  OSM       H18G            0.0753852069      -37.1173460807        0.3480244997  MEMB      73              0.0000000000
      8330        73  OSM       H18H           -0.7681609687      -35.5048927867        0.7962124793  MEMB      73              0.0000000000
      8331        74  OSM       N              28.6373955210       22.4904756203       22.6930103333  MEMB      74              0.0000000000
      8332        74  OSM       C15            27.5657022451       23.5214953662       22.8311114581  MEMB      74              0.0000000000
      8333        74  OSM       H15A           26.6686334770       23.1167469996       22.3691188871  MEMB      74              0.0000000000
      8334        74  OSM       H15B           27.8621383711       24.4498772436       22.3582003873  MEMB      74              0.0000000000
      8335        74  OSM       H15C           27.3134592506       23.7626721884       23.8592758731  MEMB      74              0.0000000000
      8336        74  OSM       C14            29.8585846584       22.7944103483       23.4733285499  MEMB      74              0.0000000000
      8337        74  OSM       H14A           29.6093556873       23.0598800874       24.4979825974  MEMB      74              0.0000000000
      8338        74  OSM       H14B           30.3631282984       23.6583921902       23.0454155714  MEMB      74              0.0000000000
      8339        74  OSM       H14C           30.5434292870       21.9658609730       23.4079957459  MEMB      74              0.0000000000
      8340        74  OSM       C13            28.0294201709       21.2308937100       23.1825486569  MEMB      74              0.0000000000
      8341        74  OSM       H13A           27.2058628973       20.9936456395       22.5182692712  MEMB      74              0.0000000000
      8342        74  OSM       H13B           27.6691963477       21.2982206526       24.2066668808  MEMB      74              0.0000000000
      8343        74  OSM       H13C           28.7602794091       20.4489034275       23.0632944342  MEMB      74              0.0000000000
      8344        74  OSM       C12            29.0439476600       22.4170971126       21.2138504881  MEMB      74              0.0000000000
      8345        74  OSM       H12A           29.6421219267       23.3099357065       21.0432574778  MEMB      74              0.0000000000
      8346        74  OSM       H12B           28.1531049152       22.5358090491       20.6040176241  MEMB      74              0.0000000000
      8347        74  OSM       C11            29.8537828567       21.2080395294       20.6363122276  MEMB      74              0.0000000000
      8348        74  OSM       H11A           30.8238927317       21.0912593673       21.1691997373  MEMB      74              0.0000000000
      8349        74  OSM       H11B           30.1312004026       21.4473412518       19.5743168762  MEMB      74              0.0000000000
      8350        74  OSM       P              28.7384508566       19.1434900899       19.4167571333  MEMB      74              0.0000000000
      8351        74  OSM       O13            29.9909959375       18.8368228202       18.7111342792  MEMB      74              0.0000000000
      8352        74  OSM       O14            27.8185649185       18.0559506391       19.7915022061  MEMB      74              0.0000000000
      8353        74  OSM       O11            27.9279508569       20.1825985177       18.5595141939  MEMB      74              0.0000000000
      8354        74  OSM       O12            29.1178039617       19.9877332298       20.7329886212  MEMB      74              0.0000000000
      8355        74  OSM       C1S            28.2974616924       20.5433954112       17.2247454140  MEMB      74              0.0000000000
      8356        74  OSM       H1S            29.3987287281       20.5782640271       17.0691582756  MEMB      74              0.0000000000
      8357        74  OSM       H1T            27.8944120848       21.5699797104       17.0902163896  MEMB      74              0.0000000000
      8358        74  OSM       NF             28.3457182888       19.8599477832       14.8380221822  MEMB      74              0.0000000000
      8359        74  OSM       HNF            27.8724636637       20.4405111962       14.1929977293  MEMB      74              0.0000000000
      8360        74  OSM       C2S            27.6705393127       19.6529614338       16.1038038614  MEMB      74              0.0000000000
      8361        74  OSM       H2S            27.7549694320       18.5710188630       16.3724304994  MEMB      74              0.0000000000
      8362        74  OSM       C3S            26.1922424554       20.0391063798       16.0350901251  MEMB      74              0.0000000000
      8363        74  OSM       H3S            26.0545110162       21.1451843605       16.0423707847  MEMB      74              0.0000000000
      8364        74  OSM       O3             25.4834456119       19.4551962570       17.1071985784  MEMB      74              0.0000000000
      8365        74  OSM       HO3            26.1727615202       19.0020328434       17.6079092041  MEMB      74              0.0000000000
      8366        74  OSM       C4S            25.6162004541       19.5635177691       14.7617979656  MEMB      74              0.0000000000
      8367        74  OSM       H4S            25.3699238687       18.4995885430       14.7930221159  MEMB      74              0.0000000000
      8368        74  OSM       C5S            25.3713511292       20.4211208269       13.7423061525  MEMB      74              0.0000000000
      8369        74  OSM       H5S            25.5544115743       21.4758786999       13.8609281536  MEMB      74              0.0000000000
      8370        74  OSM       C6S            24.8221724197       20.2701737700       12.3917000530  MEMB      74              0.0000000000
      8371        74  OSM       H6S            23.9564390167       20.8908764400       12.0955754129  MEMB      74              0.0000000000
      8372        74  OSM       H6T            24.2058337861       19.4503512301       12.5002488490  MEMB      74              0.0000000000
      8373        74  OSM       C7S            25.8969835880       20.2171704454       11.2918555056  MEMB      74              0.0000000000
      8374        74  OSM       H7S            25.4338630692       20.0762541033       10.2786934246  MEMB      74              0.0000000000
      8375        74  OSM       H7T            26.7306175454       19.4713630909       11.3741575685  MEMB      74              0.0000000000
      8376        74  OSM       C8S            26.4543607962       21.5024296876       11.1195405627  MEMB      74              0.0000000000
      8377        74  OSM       H8S            27.0352190579       21.6241176825       12.0447738969  MEMB      74              0.0000000000
      8378        74  OSM       H8T            25.5481822718       22.1139428320       11.1606052361  MEMB      74              0.0000000000
      8379        74  OSM       C9S            27.1859194747       21.4150555797        9.8057989821  MEMB      74              0.0000000000
      8380        74  OSM       H9S            26.4893908487       21.3405837047        8.9338419744  MEMB      74              0.0000000000
      8381        74  OSM       H9T            27.8298667209       20.4980735443        9.8284148788  MEMB      74              0.0000000000
      8382        74  OSM       C10S           28.0026632448       22.6515040755        9.6888538480  MEMB      74              0.0000000000
      8383        74  OSM       H10S           28.3483137991       22.8849674079       10.7293012782  MEMB      74              0.0000000000
      8384        74  OSM       H10T           27.3216360727       23.4608981213        9.3466081117  MEMB      74              0.0000000000
      8385        74  OSM       C11S           29.1752415900       22.4603916571        8.7379985051  MEMB      74              0.0000000000
      8386        74  OSM       H11S           29.7731036937       21.5606874239        9.0214444538  MEMB      74              0.0000000000
      8387        74  OSM       H11T           29.7923326944       23.3718937513        8.8615914120  MEMB      74              0.0000000000
      8388        74  OSM       C12S           28.8074190205       22.2704870987        7.2587751168  MEMB      74              0.0000000000
      8389        74  OSM       H12S           28.0205192547       22.9751040000        6.9219033065  MEMB      74              0.0000000000
      8390        74  OSM       H12T           28.4059143043       21.2377005670        7.1397779076  MEMB      74              0.0000000000
      8391        74  OSM       C13S           30.0190539549       22.4384933158        6.3325135400  MEMB      74              0.0000000000
      8392        74  OSM       H13S           30.9264780092       22.0098163492        6.8206733638  MEMB      74              0.0000000000
      8393        74  OSM       H13T           30.2045829064       23.5097907904        6.1033876451  MEMB      74              0.0000000000
      8394        74  OSM       C14S           29.8563311863       21.6708042994        5.0263218128  MEMB      74              0.0000000000
      8395        74  OSM       H14S           28.8113946696       21.6878170694        4.6588677493  MEMB      74              0.0000000000
      8396        74  OSM       H14T           30.0847279668       20.6258482164        5.3059173366  MEMB      74              0.0000000000
      8397        74  OSM       C15S           30.8424931231       22.1074438628        3.9423895084  MEMB      74              0.0000000000
      8398        74  OSM       H15S           31.1425515953       21.1999295701        3.3818478851  MEMB      74              0.0000000000
      8399        74  OSM       H15T           31.7661013983       22.5348389460        4.3908005535  MEMB      74              0.0000000000
      8400        74  OSM       C16S           30.2712647302       23.0882745861        2.9223677833  MEMB      74              0.0000000000
      8401        74  OSM       H16S           29.7326650717       23.9211565848        3.4362986091  MEMB      74              0.0000000000
      8402        74  OSM       H16T           29.5344459129       22.5500491017        2.2880611938  MEMB      74              0.0000000000
      8403        74  OSM       C17S           31.3941376757       23.5511579415        1.9924002963  MEMB      74              0.0000000000
      8404        74  OSM       H17S           31.9258062415       22.7077146770        1.5349021453  MEMB      74              0.0000000000
      8405        74  OSM       H17T           32.1160147277       24.1886241613        2.5710812649  MEMB      74              0.0000000000
      8406        74  OSM       C18S           30.9245755145       24.3211426507        0.8066054240  MEMB      74              0.0000000000
      8407        74  OSM       H18S           30.6930419226       25.1906350774        1.3859469249  MEMB      74              0.0000000000
      8408        74  OSM       H18T           30.0486385399       23.9775169847        0.2300780841  MEMB      74              0.0000000000
      8409        74  OSM       H18U           31.7268427320       24.6163216695        0.1140631533  MEMB      74              0.0000000000
      8410        74  OSM       C1F            29.5350910019       19.3624149986       14.5455453712  MEMB      74              0.0000000000
      8411        74  OSM       OF             30.1221728328       18.5827013768       15.2731801101  MEMB      74              0.0000000000
      8412        74  OSM       C2F            30.1131222204       19.8238976843       13.2584531807  MEMB      74              0.0000000000
      8413        74  OSM       H2F            31.0325742752       20.4194281842       13.4534108656  MEMB      74              0.0000000000
      8414        74  OSM       H2G            29.3860469005       20.4652432122       12.7164451324  MEMB      74              0.0000000000
      8415        74  OSM       C3F            30.6113291184       18.6401041903       12.4309317996  MEMB      74              0.0000000000
      8416        74  OSM       H3F            29.8506185454       17.8491325705       12.2285944184  MEMB      74              0.0000000000
      8417        74  OSM       H3G            31.3850168147       18.1638608622       13.0727593636  MEMB      74              0.0000000000
      8418        74  OSM       C4F            31.1596200076       19.1684339737       11.1032247186  MEMB      74              0.0000000000
      8419        74  OSM       H4F            32.1686236752       19.6290414142       11.1920550171  MEMB      74              0.0000000000
      8420        74  OSM       H4G            30.4814903966       19.9749588754       10.7653422702  MEMB      74              0.0000000000
      8421        74  OSM       C5F            31.0318997236       18.1257372201       10.0174239546  MEMB      74              0.0000000000
      8422        74  OSM       H5F            29.9726030180       17.8985769866        9.8137734248  MEMB      74              0.0000000000
      8423        74  OSM       H5G            31.3298359357       17.2160818916       10.5129615633  MEMB      74              0.0000000000
      8424        74  OSM       C6F            31.7157769332       18.5158362376        8.7136662719  MEMB      74              0.0000000000
      8425        74  OSM       H6F            32.8155738318       18.2889999304        8.7705073266  MEMB      74              0.0000000000
      8426        74  OSM       H6G            31.5398291419       19.5736399991        8.4588209132  MEMB      74              0.0000000000
      8427        74  OSM       C7F            31.1789708822       17.8392678083        7.4748730193  MEMB      74              0.0000000000
      8428        74  OSM       H7F            30.1728420111       17.9728285864        7.0743911900  MEMB      74              0.0000000000
      8429        74  OSM       H7G            30.8904205979       16.9321279774        7.9853627261  MEMB      74              0.0000000000
      8430        74  OSM       C8F            32.3517200608       18.0395614736        6.4697758307  MEMB      74              0.0000000000
      8431        74  OSM       H8F            33.3256867104       17.8173001991        6.9308812106  MEMB      74              0.0000000000
      8432        74  OSM       H8G            32.2388727088       19.0635653561        6.1051175580  MEMB      74              0.0000000000
      8433        74  OSM       C9F            32.7532801523       17.3255463441        5.3042417121  MEMB      74              0.0000000000
      8434        74  OSM       H9F            33.0024240038       16.2793252071        5.5917702621  MEMB      74              0.0000000000
      8435        74  OSM       C10F           32.1562590938       17.6510071155        4.1644080505  MEMB      74              0.0000000000
      8436        74  OSM       H10F           31.8468935447       16.9310739571        3.5312771977  MEMB      74              0.0000000000
      8437        74  OSM       C11F           31.1521561294       18.5609768364        3.6287529042  MEMB      74              0.0000000000
      8438        74  OSM       H11F           30.8895830647       19.2266581277        4.4019181722  MEMB      74              0.0000000000
      8439        74  OSM       H11G           30.1735112105       18.1342266907        3.2388012307  MEMB      74              0.0000000000
      8440        74  OSM       C12F           32.1487855603       18.9167463219        2.5429773144  MEMB      74              0.0000000000
      8441        74  OSM       H12F           33.2724152800       18.8687281844        2.6924575419  MEMB      74              0.0000000000
      8442        74  OSM       H12G           31.9090091504       19.8731685262        2.0944463002  MEMB      74              0.0000000000
      8443        74  OSM       C13F           31.8746061203       18.1712449899        1.3186577529  MEMB      74              0.0000000000
      8444        74  OSM       H13F           32.2633533347       17.1991733047        1.4702107555  MEMB      74              0.0000000000
      8445        74  OSM       H13G           32.6437346045       18.4970877038        0.5950117842  MEMB      74              0.0000000000
      8446        74  OSM       C14F           30.4257636887       18.4133025452        0.8214697187  MEMB      74              0.0000000000
      8447        74  OSM       H14F           30.4673074326       18.7911469966       -0.1905639056  MEMB      74              0.0000000000
      8448        74  OSM       H14G           29.8578402274       19.1580384553        1.3321704685  MEMB      74              0.0000000000
      8449        74  OSM       C15F           29.4403480651       17.2985563075        0.8716731442  MEMB      74              0.0000000000
      8450        74  OSM       H15F           29.4825309105       16.7732278452        1.8042131983  MEMB      74              0.0000000000
      8451        74  OSM       H15G           29.6932650957       16.6912728983        0.1496475470  MEMB      74              0.0000000000
      8452        74  OSM       C16F           28.3791505722       16.8364110904       -0.1473563191  MEMB      74              0.0000000000
      8453        74  OSM       H16F           28.2368367247       15.7277256589       -0.0880372599  MEMB      74              0.0000000000
      8454        74  OSM       H16G           28.4399871827       16.8905739104       -1.2557175690  MEMB      74              0.0000000000
      8455        74  OSM       C17F           27.5052013084       17.8021542542        0.4376714672  MEMB      74              0.0000000000
      8456        74  OSM       H17F           28.0043719509       18.7076094155        0.0211605228  MEMB      74              0.0000000000
      8457        74  OSM       H17G           27.6060880544       17.6678546501        1.5605267300  MEMB      74              0.0000000000
      8458        74  OSM       C18F           26.1054491912       17.7329760587        0.0145099842  MEMB      74              0.0000000000
      8459        74  OSM       H18F           25.4910819727       18.5156806452        0.4256716298  MEMB      74              0.0000000000
      8460        74  OSM       H18G           25.6196360146       16.9133540612        0.5410531875  MEMB      74              0.0000000000
      8461        74  OSM       H18H           26.0448159202       17.5643978092       -1.0860767652  MEMB      74              0.0000000000
      8462        75  SAPS      N             -11.4696889713      -36.5786473042       18.6291821231  MEMB      75              0.0000000000
      8463        75  SAPS      HN1           -10.8814828641      -36.1395332694       17.8984888323  MEMB      75              0.0000000000
      8464        75  SAPS      HN2           -10.9017212096      -37.3544860420       19.0431672819  MEMB      75              0.0000000000
      8465        75  SAPS      HN3           -12.3415866588      -36.9712043151       18.2599605208  MEMB      75              0.0000000000
      8466        75  SAPS      C12           -11.6863057394      -35.5407814198       19.6416385616  MEMB      75              0.0000000000
      8467        75  SAPS      H12A          -12.5944494255      -35.0782133058       19.3392396792  MEMB      75              0.0000000000
      8468        75  SAPS      C13           -11.9502473567      -36.1210123138       21.0068724424  MEMB      75              0.0000000000
      8469        75  SAPS      O13A          -11.9946581985      -37.3689367427       21.0740168552  MEMB      75              0.0000000000
      8470        75  SAPS      O13B          -12.3465738677      -35.3718720513       21.9246917114  MEMB      75              0.0000000000
      8471        75  SAPS      C11           -10.6348187476      -34.4235172883       19.6411168847  MEMB      75              0.0000000000
      8472        75  SAPS      H11A          -10.4343838673      -34.1822852765       18.5768410608  MEMB      75              0.0000000000
      8473        75  SAPS      H11B           -9.6743181265      -34.6134493526       20.1762638276  MEMB      75              0.0000000000
      8474        75  SAPS      P             -11.1520796741      -31.9114781338       19.6965275228  MEMB      75              0.0000000000
      8475        75  SAPS      O13           -12.0348554822      -31.0332586935       20.4573730117  MEMB      75              0.0000000000
      8476        75  SAPS      O14            -9.7722502859      -31.5972944341       19.4106044435  MEMB      75              0.0000000000
      8477        75  SAPS      O12           -11.2608270269      -33.3374545816       20.2557808533  MEMB      75              0.0000000000
      8478        75  SAPS      O11           -11.6960989503      -32.1362262899       18.2558606500  MEMB      75              0.0000000000
      8479        75  SAPS      C1            -11.0995250305      -31.2484180080       17.2935439131  MEMB      75              0.0000000000
      8480        75  SAPS      HA            -10.8366850626      -30.1996196256       17.6791769757  MEMB      75              0.0000000000
      8481        75  SAPS      HB            -10.3429237870      -31.6469442839       16.5975370002  MEMB      75              0.0000000000
      8482        75  SAPS      C2            -12.1692216286      -30.9828812584       16.3956391301  MEMB      75              0.0000000000
      8483        75  SAPS      HS            -12.9305560689      -30.7743399616       17.1813268817  MEMB      75              0.0000000000
      8484        75  SAPS      O21           -12.7660976462      -32.0824553498       15.7110461843  MEMB      75              0.0000000000
      8485        75  SAPS      C21           -14.0754298509      -32.1056902437       15.6928503673  MEMB      75              0.0000000000
      8486        75  SAPS      O22           -14.9219148067      -31.3338019736       16.0976486779  MEMB      75              0.0000000000
      8487        75  SAPS      C22           -14.4444059622      -33.3098318718       15.0996398672  MEMB      75              0.0000000000
      8488        75  SAPS      H2R           -13.8139407206      -33.6738671400       14.2791104299  MEMB      75              0.0000000000
      8489        75  SAPS      H2S           -14.8111152586      -33.9513714008       15.9272939298  MEMB      75              0.0000000000
      8490        75  SAPS      C3            -11.3651758020      -29.8319122080       15.4464246900  MEMB      75              0.0000000000
      8491        75  SAPS      HX            -11.2278318479      -28.7720345050       15.8140161780  MEMB      75              0.0000000000
      8492        75  SAPS      HY            -11.9356515952      -29.0633184798       14.9944430929  MEMB      75              0.0000000000
      8493        75  SAPS      O31           -10.5613132539      -30.2395566867       14.3663472752  MEMB      75              0.0000000000
      8494        75  SAPS      C31           -10.9264899723      -30.8085917084       13.2270344305  MEMB      75              0.0000000000
      8495        75  SAPS      O32           -11.9572659307      -31.1133563169       12.7050417607  MEMB      75              0.0000000000
      8496        75  SAPS      C32            -9.8275126641      -31.2190477277       12.5112706622  MEMB      75              0.0000000000
      8497        75  SAPS      H2X            -9.2375725588      -31.7056095294       13.3109203102  MEMB      75              0.0000000000
      8498        75  SAPS      H2Y            -9.3574016034      -30.3266411101       12.0326865574  MEMB      75              0.0000000000
      8499        75  SAPS      C23           -15.5835935582      -32.9391403551       14.3394462802  MEMB      75              0.0000000000
      8500        75  SAPS      H3R           -16.3293018431      -32.4845330037       15.0718137607  MEMB      75              0.0000000000
      8501        75  SAPS      H3S           -15.9505723641      -33.9718746891       14.1260212444  MEMB      75              0.0000000000
      8502        75  SAPS      C24           -15.3927537494      -32.2943626240       12.9232373746  MEMB      75              0.0000000000
      8503        75  SAPS      H4R           -15.2908042870      -31.2686653433       12.8493137170  MEMB      75              0.0000000000
      8504        75  SAPS      H4S           -16.2983673333      -31.8824449413       12.5472338396  MEMB      75              0.0000000000
      8505        75  SAPS      C25           -14.7956888675      -33.0940221042       11.8067732466  MEMB      75              0.0000000000
      8506        75  SAPS      H5R           -14.2745962121      -33.9568971589       12.1858081171  MEMB      75              0.0000000000
      8507        75  SAPS      C26           -14.9792323112      -33.0820916128       10.4853423034  MEMB      75              0.0000000000
      8508        75  SAPS      H6R           -15.0224582436      -34.0693109553       10.0006185712  MEMB      75              0.0000000000
      8509        75  SAPS      C27           -15.8247050764      -32.2936857227        9.6040779720  MEMB      75              0.0000000000
      8510        75  SAPS      H7R           -16.6266445242      -31.8580138762       10.1167716508  MEMB      75              0.0000000000
      8511        75  SAPS      H7S           -16.2101560521      -33.0557336411        8.8962374576  MEMB      75              0.0000000000
      8512        75  SAPS      C28           -16.0171040889      -31.1094133634        8.9409744351  MEMB      75              0.0000000000
      8513        75  SAPS      H8R           -16.6421699518      -30.2724129222        9.3932889329  MEMB      75              0.0000000000
      8514        75  SAPS      C29           -15.6178464658      -31.2273256879        7.7363619471  MEMB      75              0.0000000000
      8515        75  SAPS      H9R           -15.2156220096      -30.4203981339        7.3234002164  MEMB      75              0.0000000000
      8516        75  SAPS      C210          -15.0143257061      -32.2348165636        6.9317637269  MEMB      75              0.0000000000
      8517        75  SAPS      H10R          -15.2398036767      -31.9567704276        5.8960240966  MEMB      75              0.0000000000
      8518        75  SAPS      H10S          -15.4674986720      -33.1615462451        7.1810872876  MEMB      75              0.0000000000
      8519        75  SAPS      C211          -13.5624475443      -32.2441167379        7.2338798488  MEMB      75              0.0000000000
      8520        75  SAPS      H11R          -13.3189730506      -32.5763052362        8.2455791495  MEMB      75              0.0000000000
      8521        75  SAPS      C212          -12.5967885819      -31.8890869111        6.3894759882  MEMB      75              0.0000000000
      8522        75  SAPS      H12R          -11.5561902030      -32.0031024621        6.6771215891  MEMB      75              0.0000000000
      8523        75  SAPS      C213          -12.7615601955      -31.4178932394        4.9966070473  MEMB      75              0.0000000000
      8524        75  SAPS      H13R          -13.6215653274      -31.8985678241        4.4650593222  MEMB      75              0.0000000000
      8525        75  SAPS      H13S          -11.8243493096      -31.4640138462        4.4245131909  MEMB      75              0.0000000000
      8526        75  SAPS      C214          -12.9661895560      -29.9951382807        5.0063465642  MEMB      75              0.0000000000
      8527        75  SAPS      H14R          -13.1162535681      -29.4303656232        5.9530924758  MEMB      75              0.0000000000
      8528        75  SAPS      C215          -13.1849519018      -29.4293416971        3.8445535390  MEMB      75              0.0000000000
      8529        75  SAPS      H15R          -13.8419890417      -28.5897348637        3.9767104344  MEMB      75              0.0000000000
      8530        75  SAPS      C216          -13.2601179222      -29.9862144376        2.4421697631  MEMB      75              0.0000000000
      8531        75  SAPS      H16R          -13.2965842259      -31.0825768994        2.4513561600  MEMB      75              0.0000000000
      8532        75  SAPS      H16S          -12.4159140510      -29.4991806512        1.9162477875  MEMB      75              0.0000000000
      8533        75  SAPS      C217          -14.3959689091      -29.6193568978        1.4696577786  MEMB      75              0.0000000000
      8534        75  SAPS      H17R          -14.0099463650      -28.8253914022        0.8872382892  MEMB      75              0.0000000000
      8535        75  SAPS      H17S          -15.1856606012      -29.0306332269        1.8219017628  MEMB      75              0.0000000000
      8536        75  SAPS      C218          -14.8025436635      -30.4892414629        0.3387339366  MEMB      75              0.0000000000
      8537        75  SAPS      H18R          -13.7558244091      -30.6585909973        0.1082842879  MEMB      75              0.0000000000
      8538        75  SAPS      H18S          -15.4660347613      -29.8847068675       -0.3075829678  MEMB      75              0.0000000000
      8539        75  SAPS      C219          -15.1977322147      -31.9329315827        0.4297570928  MEMB      75              0.0000000000
      8540        75  SAPS      H19R          -14.5031980810      -32.5106346239        1.0469416087  MEMB      75              0.0000000000
      8541        75  SAPS      H19S          -15.7451154232      -32.3586512510       -0.4518981907  MEMB      75              0.0000000000
      8542        75  SAPS      C220          -16.0848934425      -32.0794707070        1.3387465335  MEMB      75              0.0000000000
      8543        75  SAPS      H20R          -16.9942909514      -31.9000869124        0.7982643768  MEMB      75              0.0000000000
      8544        75  SAPS      H20S          -16.1844098607      -31.0590029100        1.6262478675  MEMB      75              0.0000000000
      8545        75  SAPS      H20T          -16.6492530628      -32.9459336139        1.5907099326  MEMB      75              0.0000000000
      8546        75  SAPS      C33           -10.4993669286      -32.2538437858       11.5544646607  MEMB      75              0.0000000000
      8547        75  SAPS      H3X           -11.1672903541      -31.8101629319       10.7587123920  MEMB      75              0.0000000000
      8548        75  SAPS      H3Y           -11.1202794343      -33.0224486335       12.0938884479  MEMB      75              0.0000000000
      8549        75  SAPS      C34            -9.3736844105      -32.9040956968       10.8885823479  MEMB      75              0.0000000000
      8550        75  SAPS      H4X            -8.9457587099      -33.7184948599       11.5066578967  MEMB      75              0.0000000000
      8551        75  SAPS      H4Y            -8.7165383538      -32.0242790756       10.9000278747  MEMB      75              0.0000000000
      8552        75  SAPS      C35            -9.6798019092      -33.3622600603        9.4981062058  MEMB      75              0.0000000000
      8553        75  SAPS      H5X            -8.7566712881      -33.8215376686        9.0796234414  MEMB      75              0.0000000000
      8554        75  SAPS      H5Y            -9.9775770541      -32.5385087595        8.8072053049  MEMB      75              0.0000000000
      8555        75  SAPS      C36           -10.7299913452      -34.4376454864        9.5384387797  MEMB      75              0.0000000000
      8556        75  SAPS      H6X           -11.7150949324      -34.1431005266        9.9826615106  MEMB      75              0.0000000000
      8557        75  SAPS      H6Y           -10.3726187183      -35.3274912202       10.1000189265  MEMB      75              0.0000000000
      8558        75  SAPS      C37           -10.8576363146      -34.8767481810        8.1312082021  MEMB      75              0.0000000000
      8559        75  SAPS      H7X            -9.9831619554      -35.3963260574        7.6961225888  MEMB      75              0.0000000000
      8560        75  SAPS      H7Y           -11.2561829744      -34.0789394423        7.4505149943  MEMB      75              0.0000000000
      8561        75  SAPS      C38           -11.8032146601      -35.9360306326        8.0555313836  MEMB      75              0.0000000000
      8562        75  SAPS      H8X           -12.6683288290      -35.5085990295        8.6700086340  MEMB      75              0.0000000000
      8563        75  SAPS      H8Y           -11.5447021941      -36.9339983707        8.4616117845  MEMB      75              0.0000000000
      8564        75  SAPS      C39           -12.0137483320      -35.9038602752        6.5431706127  MEMB      75              0.0000000000
      8565        75  SAPS      H9X           -12.6757587039      -35.0476823060        6.3582984316  MEMB      75              0.0000000000
      8566        75  SAPS      H9Y           -12.6767811484      -36.6033977336        6.1479620856  MEMB      75              0.0000000000
      8567        75  SAPS      C310          -11.4524669923      -36.9312276307        5.5913020997  MEMB      75              0.0000000000
      8568        75  SAPS      H10X          -11.4865147971      -37.9784401440        6.0199876411  MEMB      75              0.0000000000
      8569        75  SAPS      H10Y          -10.4617731209      -36.5393039181        5.7050574228  MEMB      75              0.0000000000
      8570        75  SAPS      C311          -12.1718573722      -36.9087077016        4.1947409484  MEMB      75              0.0000000000
      8571        75  SAPS      H11X          -13.2847717758      -36.9589204078        4.1808863725  MEMB      75              0.0000000000
      8572        75  SAPS      H11Y          -11.9677440603      -37.8925531549        3.7551056400  MEMB      75              0.0000000000
      8573        75  SAPS      C312          -11.8103043701      -35.6747680809        3.3670633780  MEMB      75              0.0000000000
      8574        75  SAPS      H12X          -10.7098519693      -35.6925737163        3.2394750525  MEMB      75              0.0000000000
      8575        75  SAPS      H12Y          -12.0435678800      -34.7319731868        3.9226612871  MEMB      75              0.0000000000
      8576        75  SAPS      C313          -12.4877422233      -35.7821387857        1.9933018790  MEMB      75              0.0000000000
      8577        75  SAPS      H13X          -13.5907037073      -35.6651742274        2.0650457836  MEMB      75              0.0000000000
      8578        75  SAPS      H13Y          -12.3127283614      -36.8293433055        1.6566115097  MEMB      75              0.0000000000
      8579        75  SAPS      C314          -11.9923224232      -34.8050700515        0.9257826317  MEMB      75              0.0000000000
      8580        75  SAPS      H14X          -10.8969480105      -34.8949099581        0.7545533153  MEMB      75              0.0000000000
      8581        75  SAPS      H14Y          -12.1777435231      -33.7595243970        1.2568066066  MEMB      75              0.0000000000
      8582        75  SAPS      C315          -12.7702087960      -34.9268605674       -0.3930740021  MEMB      75              0.0000000000
      8583        75  SAPS      H15X          -12.4973517315      -33.9960652972       -0.9314105518  MEMB      75              0.0000000000
      8584        75  SAPS      H15Y          -13.8688073049      -34.8959992364       -0.2060094992  MEMB      75              0.0000000000
      8585        75  SAPS      C316          -12.3721426767      -36.1364910466       -1.2520980281  MEMB      75              0.0000000000
      8586        75  SAPS      H16X          -12.7617695899      -37.0857147558       -0.8141391495  MEMB      75              0.0000000000
      8587        75  SAPS      H16Y          -11.2694058392      -36.1927970892       -1.3311730114  MEMB      75              0.0000000000
      8588        75  SAPS      C317          -12.7999412180      -36.0922840713       -2.7132588318  MEMB      75              0.0000000000
      8589        75  SAPS      H17X          -12.5919370878      -37.0991684989       -3.1440761023  MEMB      75              0.0000000000
      8590        75  SAPS      H17Y          -12.3584634966      -35.2663383829       -3.2953292410  MEMB      75              0.0000000000
      8591        75  SAPS      C318          -14.2229111932      -35.9054585505       -2.8897485844  MEMB      75              0.0000000000
      8592        75  SAPS      H18X          -14.6220959732      -34.9489124438       -2.4764343460  MEMB      75              0.0000000000
      8593        75  SAPS      H18Y          -14.6642868373      -36.7008116314       -2.2973104684  MEMB      75              0.0000000000
      8594        75  SAPS      H18Z          -14.6120383900      -36.1108486549       -3.9071059421  MEMB      75              0.0000000000
      8595        76  CHL1      C3            -34.6287163134       10.5117774200       17.4639847744  MEMB      76              0.0000000000
      8596        76  CHL1      H3            -34.4038933525       11.5592554491       17.7630457106  MEMB      76              0.0000000000
      8597        76  CHL1      O3            -34.6872593470        9.6273925263       18.5733390322  MEMB      76              0.0000000000
      8598        76  CHL1      H3'           -35.1910447664       10.0685940130       19.2662745241  MEMB      76              0.0000000000
      8599        76  CHL1      C4            -35.9473764392       10.4726267235       16.7640839938  MEMB      76              0.0000000000
      8600        76  CHL1      H4A           -36.2661896904        9.4104689865       16.6630397640  MEMB      76              0.0000000000
      8601        76  CHL1      H4B           -36.7610690967       10.9270623052       17.3765956142  MEMB      76              0.0000000000
      8602        76  CHL1      C5            -35.9213586927       11.0152883919       15.3652683640  MEMB      76              0.0000000000
      8603        76  CHL1      C6            -36.8860023826       11.8671102332       15.0021334111  MEMB      76              0.0000000000
      8604        76  CHL1      H6            -37.6322014054       12.2829292563       15.7028416895  MEMB      76              0.0000000000
      8605        76  CHL1      C7            -37.2033581553       11.9344421915       13.5792887041  MEMB      76              0.0000000000
      8606        76  CHL1      H7A           -38.0484267878       12.6105180876       13.3278439828  MEMB      76              0.0000000000
      8607        76  CHL1      H7B           -36.5287631197       12.6373358738       13.7394091359  MEMB      76              0.0000000000
      8608        76  CHL1      C8            -36.2071941731       11.2760930337       12.5014095496  MEMB      76              0.0000000000
      8609        76  CHL1      H8            -36.8609547220       10.4412909932       12.2422584828  MEMB      76              0.0000000000
      8610        76  CHL1      C14           -35.7519818989       11.8675595938       11.1500584009  MEMB      76              0.0000000000
      8611        76  CHL1      H14           -35.0644756958       12.6535565474       11.1997374095  MEMB      76              0.0000000000
      8612        76  CHL1      C15           -36.7030474357       12.4345031189       10.4806640009  MEMB      76              0.0000000000
      8613        76  CHL1      H15A          -37.4884585577       12.0533326464       11.1219924703  MEMB      76              0.0000000000
      8614        76  CHL1      H15B          -37.3636741309       13.1961584572       10.7392706333  MEMB      76              0.0000000000
      8615        76  CHL1      C16           -36.3714889901       12.3402569665        9.0662110080  MEMB      76              0.0000000000
      8616        76  CHL1      H16A          -37.1441906019       11.7398649231        8.5744779077  MEMB      76              0.0000000000
      8617        76  CHL1      H16B          -36.2181222730       13.2698654360        8.5185396203  MEMB      76              0.0000000000
      8618        76  CHL1      C17           -35.0370644191       12.1642541860        8.8582014557  MEMB      76              0.0000000000
      8619        76  CHL1      H17           -34.5025377872       13.1575133997        9.1028882611  MEMB      76              0.0000000000
      8620        76  CHL1      C13           -35.0361156262       11.2095251957       10.0263837333  MEMB      76              0.0000000000
      8621        76  CHL1      C18           -35.8972772175        9.9819400892        9.7931439494  MEMB      76              0.0000000000
      8622        76  CHL1      H18A          -35.4448176842        9.4833910782        8.9360440073  MEMB      76              0.0000000000
      8623        76  CHL1      H18B          -35.9302494060        9.4110604191       10.7231130817  MEMB      76              0.0000000000
      8624        76  CHL1      H18C          -36.9789105789       10.1334598017        9.6132922681  MEMB      76              0.0000000000
      8625        76  CHL1      C12           -33.6982199059       11.1399650807       10.6045121385  MEMB      76              0.0000000000
      8626        76  CHL1      H12A          -33.1229629642       10.6550511983        9.8171191774  MEMB      76              0.0000000000
      8627        76  CHL1      H12B          -33.3119276614       12.1908652733       10.7198370568  MEMB      76              0.0000000000
      8628        76  CHL1      C11           -33.8766938748       10.4472127608       11.9606260160  MEMB      76              0.0000000000
      8629        76  CHL1      H11A          -34.2221339577        9.4303596415       11.7083453136  MEMB      76              0.0000000000
      8630        76  CHL1      H11B          -32.8964460782       10.3927690056       12.4233570376  MEMB      76              0.0000000000
      8631        76  CHL1      C9            -34.8326701405       11.0967088570       13.0346044506  MEMB      76              0.0000000000
      8632        76  CHL1      H9            -34.3697477037       12.0998708540       13.2386017564  MEMB      76              0.0000000000
      8633        76  CHL1      C10           -34.9044663253       10.4003302828       14.3766304204  MEMB      76              0.0000000000
      8634        76  CHL1      C19           -35.0744044160        8.9333016243       13.9755077937  MEMB      76              0.0000000000
      8635        76  CHL1      H19A          -34.1188121753        8.5407292339       13.5936307727  MEMB      76              0.0000000000
      8636        76  CHL1      H19B          -35.3339512216        8.3010844517       14.8391541873  MEMB      76              0.0000000000
      8637        76  CHL1      H19C          -35.8518298635        8.8380052353       13.1785555520  MEMB      76              0.0000000000
      8638        76  CHL1      C1            -33.5792979554       10.5488498408       15.1129358690  MEMB      76              0.0000000000
      8639        76  CHL1      H1A           -32.7945091336       10.0058529706       14.5462345347  MEMB      76              0.0000000000
      8640        76  CHL1      H1B           -33.3152917968       11.6272842066       15.1356284886  MEMB      76              0.0000000000
      8641        76  CHL1      C2            -33.5954170359        9.9258543158       16.5145097513  MEMB      76              0.0000000000
      8642        76  CHL1      H2A           -32.5786303993       10.0101024314       16.9330822064  MEMB      76              0.0000000000
      8643        76  CHL1      H2B           -33.8942224600        8.8513026425       16.4329380518  MEMB      76              0.0000000000
      8644        76  CHL1      C20           -34.8600083334       11.9233207643        7.3545880305  MEMB      76              0.0000000000
      8645        76  CHL1      H20           -34.8611783024       12.9751730066        6.9229569831  MEMB      76              0.0000000000
      8646        76  CHL1      C21           -35.8210140841       11.0050053725        6.5173879485  MEMB      76              0.0000000000
      8647        76  CHL1      H21A          -36.7532711910       11.4042463399        6.2866574325  MEMB      76              0.0000000000
      8648        76  CHL1      H21B          -36.3648150123       10.1833493938        6.9915001880  MEMB      76              0.0000000000
      8649        76  CHL1      H21C          -35.5588541031       10.9347994968        5.4437018446  MEMB      76              0.0000000000
      8650        76  CHL1      C22           -33.5440018095       11.3028987913        7.2365530906  MEMB      76              0.0000000000
      8651        76  CHL1      H22A          -32.8143473441       11.8220064598        7.8966433332  MEMB      76              0.0000000000
      8652        76  CHL1      H22B          -33.7331972848       10.2651959739        7.5971656727  MEMB      76              0.0000000000
      8653        76  CHL1      C23           -33.0758641967       11.3883490887        5.8142721237  MEMB      76              0.0000000000
      8654        76  CHL1      H23A          -33.6048933135       10.6731689325        5.1487089762  MEMB      76              0.0000000000
      8655        76  CHL1      H23B          -33.3065886396       12.4163183245        5.4448338161  MEMB      76              0.0000000000
      8656        76  CHL1      C24           -31.5813162449       11.1835724863        5.8056290983  MEMB      76              0.0000000000
      8657        76  CHL1      H24A          -31.1304615487       12.0183956859        6.3906811407  MEMB      76              0.0000000000
      8658        76  CHL1      H24B          -31.2986625635       10.2288603137        6.3032311067  MEMB      76              0.0000000000
      8659        76  CHL1      C25           -31.0273068151       11.2155994390        4.3928575858  MEMB      76              0.0000000000
      8660        76  CHL1      H25           -31.6203543542       11.9558211700        3.8007229414  MEMB      76              0.0000000000
      8661        76  CHL1      C26           -29.5678825708       11.6340790742        4.4476707066  MEMB      76              0.0000000000
      8662        76  CHL1      H26A          -29.0131109049       10.9625157790        5.1426958953  MEMB      76              0.0000000000
      8663        76  CHL1      H26B          -29.1536166704       11.5544743250        3.4220124683  MEMB      76              0.0000000000
      8664        76  CHL1      H26C          -29.4740817334       12.6768833759        4.8106431884  MEMB      76              0.0000000000
      8665        76  CHL1      C27           -31.1041555832        9.8360739546        3.7379215417  MEMB      76              0.0000000000
      8666        76  CHL1      H27A          -32.1267214791        9.4211449529        3.8364250536  MEMB      76              0.0000000000
      8667        76  CHL1      H27B          -30.8135558170        9.8805716125        2.6685335710  MEMB      76              0.0000000000
      8668        76  CHL1      H27C          -30.3882441598        9.1576953455        4.2482399011  MEMB      76              0.0000000000
      8669        77  SLPC      N              35.5086386392       -6.8830904833       15.5509879787  MEMB      77              0.0000000000
      8670        77  SLPC      C13            36.4097764663       -7.8355608437       15.1382656766  MEMB      77              0.0000000000
      8671        77  SLPC      H13A           36.1852994481       -8.6929073537       15.7674678715  MEMB      77              0.0000000000
      8672        77  SLPC      H13B           36.1270380045       -7.9728951014       14.1046457913  MEMB      77              0.0000000000
      8673        77  SLPC      H13C           37.3783233872       -7.4246421625       15.3398404713  MEMB      77              0.0000000000
      8674        77  SLPC      C14            34.3293913145       -7.2328251534       14.7960708920  MEMB      77              0.0000000000
      8675        77  SLPC      H14A           34.0938803021       -6.5268615485       14.0002735030  MEMB      77              0.0000000000
      8676        77  SLPC      H14B           33.6054597357       -8.0110781408       15.0299509740  MEMB      77              0.0000000000
      8677        77  SLPC      H14C           33.8103681231       -6.6881227060       15.5175578303  MEMB      77              0.0000000000
      8678        77  SLPC      C15            35.9751175774       -5.6300568418       14.8752217038  MEMB      77              0.0000000000
      8679        77  SLPC      H15A           35.1094308195       -4.9619551587       15.0265217851  MEMB      77              0.0000000000
      8680        77  SLPC      H15B           36.6766739593       -5.0944385943       15.4956301443  MEMB      77              0.0000000000
      8681        77  SLPC      H15C           35.7179023278       -5.2765325476       13.8828570575  MEMB      77              0.0000000000
      8682        77  SLPC      C12            35.4295859136       -7.0233119074       17.1239259762  MEMB      77              0.0000000000
      8683        77  SLPC      H12A           35.1800021179       -6.1458233864       17.6756350275  MEMB      77              0.0000000000
      8684        77  SLPC      H12B           36.4277171426       -7.1148133304       17.5366318329  MEMB      77              0.0000000000
      8685        77  SLPC      C11            34.4600781273       -8.0453271669       17.7943235218  MEMB      77              0.0000000000
      8686        77  SLPC      H11A           33.4057491402       -7.9155038562       17.4663979895  MEMB      77              0.0000000000
      8687        77  SLPC      H11B           34.4238997817       -7.8787071549       18.9062465964  MEMB      77              0.0000000000
      8688        77  SLPC      P              36.1604430552       -9.9294053006       18.2168451925  MEMB      77              0.0000000000
      8689        77  SLPC      O13            37.3399396650       -9.3504047641       17.5243259148  MEMB      77              0.0000000000
      8690        77  SLPC      O14            36.0428683749       -9.7049105988       19.6690397586  MEMB      77              0.0000000000
      8691        77  SLPC      O12            34.8646961161       -9.3572085087       17.4790350529  MEMB      77              0.0000000000
      8692        77  SLPC      O11            36.0760522583      -11.4674519988       17.9668221696  MEMB      77              0.0000000000
      8693        77  SLPC      C1             34.9315163799      -12.0988251460       17.4011210237  MEMB      77              0.0000000000
      8694        77  SLPC      HA             35.0383900728      -13.1607996637       17.6857810733  MEMB      77              0.0000000000
      8695        77  SLPC      HB             33.9937064726      -11.6776469887       17.8081970331  MEMB      77              0.0000000000
      8696        77  SLPC      C2             34.8687389700      -12.1322172822       15.8331609747  MEMB      77              0.0000000000
      8697        77  SLPC      HS             34.8668296770      -13.2163303804       15.5144521868  MEMB      77              0.0000000000
      8698        77  SLPC      O21            35.9244199028      -11.3743541510       15.2600215757  MEMB      77              0.0000000000
      8699        77  SLPC      C21            36.9951368906      -12.0334055652       15.4223269662  MEMB      77              0.0000000000
      8700        77  SLPC      O22            37.0156279459      -13.1941100314       15.8548094856  MEMB      77              0.0000000000
      8701        77  SLPC      C22            38.0988428592      -11.0794878922       14.8335523729  MEMB      77              0.0000000000
      8702        77  SLPC      H2R            38.6447419654      -10.5318607414       15.5854752244  MEMB      77              0.0000000000
      8703        77  SLPC      H2S            39.1011360758      -11.4104309287       14.7019801472  MEMB      77              0.0000000000
      8704        77  SLPC      C3             33.6401582997      -11.5703794553       15.1306510186  MEMB      77              0.0000000000
      8705        77  SLPC      HX             33.3533648468      -10.5687651827       15.5075026103  MEMB      77              0.0000000000
      8706        77  SLPC      HY             32.8242833953      -12.2378963559       15.3745404179  MEMB      77              0.0000000000
      8707        77  SLPC      O31            33.8729290333      -11.6319987944       13.7032007963  MEMB      77              0.0000000000
      8708        77  SLPC      C31            33.8349333782      -10.4797402590       13.0597731635  MEMB      77              0.0000000000
      8709        77  SLPC      O32            33.3531922172       -9.4431639856       13.4833929720  MEMB      77              0.0000000000
      8710        77  SLPC      C32            34.4142376159      -10.6476728984       11.6407228809  MEMB      77              0.0000000000
      8711        77  SLPC      H2X            35.2158637094      -11.4037101181       11.6309395385  MEMB      77              0.0000000000
      8712        77  SLPC      H2Y            34.7178249594       -9.6444091383       11.2991913608  MEMB      77              0.0000000000
      8713        77  SLPC      C23            37.8021055749      -10.5055721326       13.4284856350  MEMB      77              0.0000000000
      8714        77  SLPC      H3R            37.2383974008       -9.6227254858       13.7177657516  MEMB      77              0.0000000000
      8715        77  SLPC      H3S            37.1588188683      -11.1799655532       12.8070518693  MEMB      77              0.0000000000
      8716        77  SLPC      C24            39.0746672443      -10.1440488907       12.6517871870  MEMB      77              0.0000000000
      8717        77  SLPC      H4R            39.6436528265      -10.9555748443       12.2511204733  MEMB      77              0.0000000000
      8718        77  SLPC      H4S            39.8582680065       -9.6430210859       13.2474392724  MEMB      77              0.0000000000
      8719        77  SLPC      C25            38.9077796502       -9.4084252461       11.3845960795  MEMB      77              0.0000000000
      8720        77  SLPC      H5R            39.9157057527       -9.5052180755       10.8653430947  MEMB      77              0.0000000000
      8721        77  SLPC      H5S            38.6843305161       -8.3970920542       11.6817886912  MEMB      77              0.0000000000
      8722        77  SLPC      C26            37.7888396250       -9.6127189089       10.3700791399  MEMB      77              0.0000000000
      8723        77  SLPC      H6R            37.6372321251       -8.7404221048        9.6997170016  MEMB      77              0.0000000000
      8724        77  SLPC      H6S            36.8870258688      -10.1131259664       10.7570334793  MEMB      77              0.0000000000
      8725        77  SLPC      C27            38.2827180496      -10.4671775143        9.3265097095  MEMB      77              0.0000000000
      8726        77  SLPC      H7R            38.6963475672      -11.0816248160       10.0763497454  MEMB      77              0.0000000000
      8727        77  SLPC      H7S            39.3468034146      -10.4845385789        9.0326431866  MEMB      77              0.0000000000
      8728        77  SLPC      C28            37.2364969522      -10.9347257385        8.2799110612  MEMB      77              0.0000000000
      8729        77  SLPC      H8R            36.8846744009      -10.0828942733        7.7125325672  MEMB      77              0.0000000000
      8730        77  SLPC      H8S            36.4244568249      -11.5146478656        8.7831931209  MEMB      77              0.0000000000
      8731        77  SLPC      C29            37.6280780663      -11.7534609299        7.1226096212  MEMB      77              0.0000000000
      8732        77  SLPC      H9R            38.0469825853      -12.6857457316        7.3090079439  MEMB      77              0.0000000000
      8733        77  SLPC      C210           37.7846865864      -11.7884587798        5.8676805436  MEMB      77              0.0000000000
      8734        77  SLPC      H10R           38.2021644900      -12.7395573398        5.5529357923  MEMB      77              0.0000000000
      8735        77  SLPC      C211           37.5788197305      -10.7678405674        4.9481577433  MEMB      77              0.0000000000
      8736        77  SLPC      H11R           38.4708812922      -10.2277475928        5.2272714898  MEMB      77              0.0000000000
      8737        77  SLPC      H11S           36.6086677934      -10.4108853090        5.2547300932  MEMB      77              0.0000000000
      8738        77  SLPC      C212           37.7243703377      -10.9233483807        3.5219945140  MEMB      77              0.0000000000
      8739        77  SLPC      H12R           38.7030767622      -11.4009840319        3.4130742544  MEMB      77              0.0000000000
      8740        77  SLPC      C213           36.7906151170      -11.0200195982        2.5808421613  MEMB      77              0.0000000000
      8741        77  SLPC      H13R           37.0825405234      -11.5456252505        1.6517164764  MEMB      77              0.0000000000
      8742        77  SLPC      C214           35.2906117968      -11.0133191951        2.8046811120  MEMB      77              0.0000000000
      8743        77  SLPC      H14R           35.0488602688      -10.2980922865        3.5695782734  MEMB      77              0.0000000000
      8744        77  SLPC      H14S           34.8132183514      -11.9577747914        3.1626118552  MEMB      77              0.0000000000
      8745        77  SLPC      C215           34.3379732084      -11.1990650980        1.6898220744  MEMB      77              0.0000000000
      8746        77  SLPC      H15R           34.7306332324      -10.5827399698        0.8982424770  MEMB      77              0.0000000000
      8747        77  SLPC      H15S           33.3736728961      -10.7925794373        2.0046186778  MEMB      77              0.0000000000
      8748        77  SLPC      C216           34.0324560958      -12.6264431259        1.2421724960  MEMB      77              0.0000000000
      8749        77  SLPC      H16R           33.7790481554      -13.4160254970        1.9633484787  MEMB      77              0.0000000000
      8750        77  SLPC      H16S           34.9984193179      -13.0781194977        0.9436922558  MEMB      77              0.0000000000
      8751        77  SLPC      C217           32.9073887826      -12.4335383108        0.1838294598  MEMB      77              0.0000000000
      8752        77  SLPC      H17R           32.1385597064      -11.8014747298        0.5328812634  MEMB      77              0.0000000000
      8753        77  SLPC      H17S           32.5644860080      -13.4585920488       -0.0940862365  MEMB      77              0.0000000000
      8754        77  SLPC      C218           32.9360569043      -11.3024911415       -0.8862181523  MEMB      77              0.0000000000
      8755        77  SLPC      H18R           32.2422523378      -10.9650735332       -1.6329379596  MEMB      77              0.0000000000
      8756        77  SLPC      H18S           33.1506120920      -11.9969416459       -1.6494727400  MEMB      77              0.0000000000
      8757        77  SLPC      H18T           33.7539240181      -10.6032533956       -0.9038069614  MEMB      77              0.0000000000
      8758        77  SLPC      C33            33.3959640471      -11.1278224452       10.6215199442  MEMB      77              0.0000000000
      8759        77  SLPC      H3X            32.5177721520      -10.7397638041       11.1200942755  MEMB      77              0.0000000000
      8760        77  SLPC      H3Y            33.3895043262      -12.2375468514       10.6291921768  MEMB      77              0.0000000000
      8761        77  SLPC      C34            33.3859247658      -10.5236455033        9.2078763420  MEMB      77              0.0000000000
      8762        77  SLPC      H4X            34.3230324342      -10.8932067479        8.7679215061  MEMB      77              0.0000000000
      8763        77  SLPC      H4Y            33.3373137591       -9.4261395989        9.3396341395  MEMB      77              0.0000000000
      8764        77  SLPC      C35            32.2919642302      -10.9657572612        8.2187801807  MEMB      77              0.0000000000
      8765        77  SLPC      H5X            31.3712494290      -10.4287853448        8.2108452441  MEMB      77              0.0000000000
      8766        77  SLPC      H5Y            32.1528418329      -12.0397264248        8.3360349650  MEMB      77              0.0000000000
      8767        77  SLPC      C36            32.4259067330      -10.7920615425        6.7412660323  MEMB      77              0.0000000000
      8768        77  SLPC      H6X            31.9074385004      -11.5485381969        6.1707775508  MEMB      77              0.0000000000
      8769        77  SLPC      H6Y            33.4115355817      -11.0428979381        6.5851188071  MEMB      77              0.0000000000
      8770        77  SLPC      C37            31.9506436889       -9.4986992550        6.1484373019  MEMB      77              0.0000000000
      8771        77  SLPC      H7X            30.9221867104       -9.2797890280        6.4991509668  MEMB      77              0.0000000000
      8772        77  SLPC      H7Y            31.9266824380       -9.6416010403        5.0440044382  MEMB      77              0.0000000000
      8773        77  SLPC      C38            32.8974277964       -8.3944814424        6.5097120067  MEMB      77              0.0000000000
      8774        77  SLPC      H8X            32.8061109943       -8.1811982645        7.5979399179  MEMB      77              0.0000000000
      8775        77  SLPC      H8Y            32.5995973340       -7.4749604849        5.9713469867  MEMB      77              0.0000000000
      8776        77  SLPC      C39            34.3113298670       -8.7678118812        6.0907104585  MEMB      77              0.0000000000
      8777        77  SLPC      H9X            34.3484227818       -9.3766448094        5.1638602854  MEMB      77              0.0000000000
      8778        77  SLPC      H9Y            34.8080326315       -9.3481363696        6.8959791392  MEMB      77              0.0000000000
      8779        77  SLPC      C310           35.0657218363       -7.5287387468        5.7502004257  MEMB      77              0.0000000000
      8780        77  SLPC      H10X           35.2174098024       -6.9977846031        6.7104527742  MEMB      77              0.0000000000
      8781        77  SLPC      H10Y           34.5027639623       -6.8909355612        5.0323061138  MEMB      77              0.0000000000
      8782        77  SLPC      C311           36.3932366163       -7.8324462411        5.1444563004  MEMB      77              0.0000000000
      8783        77  SLPC      H11X           36.3530678912       -8.5978597293        4.3480041464  MEMB      77              0.0000000000
      8784        77  SLPC      H11Y           36.8919977431       -8.4180440450        5.9343391355  MEMB      77              0.0000000000
      8785        77  SLPC      C312           37.0968712179       -6.5183036332        4.7357151036  MEMB      77              0.0000000000
      8786        77  SLPC      H12X           37.9735219149       -6.6153760076        4.0916474324  MEMB      77              0.0000000000
      8787        77  SLPC      H12Y           37.4921054506       -5.9827663503        5.6200718670  MEMB      77              0.0000000000
      8788        77  SLPC      C313           36.4132733861       -5.6431631734        3.7318845421  MEMB      77              0.0000000000
      8789        77  SLPC      H13X           37.1872382777       -4.8960769092        3.4031039139  MEMB      77              0.0000000000
      8790        77  SLPC      H13Y           35.6294873764       -5.1634891745        4.3046204071  MEMB      77              0.0000000000
      8791        77  SLPC      C314           35.8337189106       -6.3855971083        2.5336079648  MEMB      77              0.0000000000
      8792        77  SLPC      H14X           35.5247936315       -5.6126322330        1.7921681664  MEMB      77              0.0000000000
      8793        77  SLPC      H14Y           35.0185873597       -7.0891315018        2.7552288206  MEMB      77              0.0000000000
      8794        77  SLPC      C315           36.8574167320       -7.3014511020        1.9599641654  MEMB      77              0.0000000000
      8795        77  SLPC      H15X           37.3090372688       -7.9851178043        2.6672829078  MEMB      77              0.0000000000
      8796        77  SLPC      H15Y           37.5670769849       -6.5367727314        1.5695343474  MEMB      77              0.0000000000
      8797        77  SLPC      C316           36.4578393606       -8.5847026777        1.2144259913  MEMB      77              0.0000000000
      8798        77  SLPC      H16X           35.6613094361       -7.9721515819        0.7777447717  MEMB      77              0.0000000000
      8799        77  SLPC      H16Y           35.6638574371       -9.1718957330        1.3285028655  MEMB      77              0.0000000000
      8800        77  SLPC      C317           37.5854180540       -9.4885851443        0.5389210618  MEMB      77              0.0000000000
      8801        77  SLPC      H17X           38.3155410507       -9.9181619281        1.1735241141  MEMB      77              0.0000000000
      8802        77  SLPC      H17Y           38.0485392253       -8.8859349507        0.1938998160  MEMB      77              0.0000000000
      8803        77  SLPC      C318           37.8417819354      -10.3940527053       -0.6407775768  MEMB      77              0.0000000000
      8804        77  SLPC      H18X           37.6391184065      -10.0478913697       -1.7741865430  MEMB      77              0.0000000000
      8805        77  SLPC      H18Y           36.9463394221      -10.8821809514       -0.2884556023  MEMB      77              0.0000000000
      8806        77  SLPC      H18Z           38.6470547383      -10.5913198087       -1.3627765790  MEMB      77              0.0000000000
      8807        78  SAPI      C12           -31.7200337121      -22.6532387169       23.9772884093  MEMB      78              0.0000000000
      8808        78  SAPI      H2            -32.1666452253      -23.3967813257       23.2762979583  MEMB      78              0.0000000000
      8809        78  SAPI      O2            -32.7066773068      -21.6774554156       24.2525166312  MEMB      78              0.0000000000
      8810        78  SAPI      HO2           -32.2739845798      -20.8256142751       24.3400876549  MEMB      78              0.0000000000
      8811        78  SAPI      C13           -31.3586667873      -23.3923611949       25.2569067063  MEMB      78              0.0000000000
      8812        78  SAPI      H3            -30.6634126883      -24.2287005327       25.0219651625  MEMB      78              0.0000000000
      8813        78  SAPI      O3            -32.4974697879      -23.9915057503       25.8787120059  MEMB      78              0.0000000000
      8814        78  SAPI      HO3           -32.1896346557      -24.4799819443       26.6484306391  MEMB      78              0.0000000000
      8815        78  SAPI      C14           -30.6518573259      -22.4093909386       26.1797312277  MEMB      78              0.0000000000
      8816        78  SAPI      H4            -31.3377477477      -21.5408186758       26.3251065831  MEMB      78              0.0000000000
      8817        78  SAPI      O4            -30.4018809426      -22.9307717087       27.4877353953  MEMB      78              0.0000000000
      8818        78  SAPI      HO4           -30.5215438804      -22.1886457626       28.0787501004  MEMB      78              0.0000000000
      8819        78  SAPI      C15           -29.3767949776      -21.8873134162       25.5450467683  MEMB      78              0.0000000000
      8820        78  SAPI      H5            -28.7535308247      -22.7653462060       25.2463186900  MEMB      78              0.0000000000
      8821        78  SAPI      O5            -28.6216028714      -21.0939381615       26.4715675779  MEMB      78              0.0000000000
      8822        78  SAPI      HO5           -28.0140416838      -21.6532075492       26.9524446093  MEMB      78              0.0000000000
      8823        78  SAPI      C16           -29.7031325557      -21.1331657307       24.2773932058  MEMB      78              0.0000000000
      8824        78  SAPI      H6            -30.3295054387      -20.2400875773       24.5228823808  MEMB      78              0.0000000000
      8825        78  SAPI      O6            -28.4672677868      -20.7134511526       23.6869855078  MEMB      78              0.0000000000
      8826        78  SAPI      HO6           -27.8060776263      -21.3808755566       23.8706981288  MEMB      78              0.0000000000
      8827        78  SAPI      C11           -30.4602949945      -22.0643917577       23.3389169453  MEMB      78              0.0000000000
      8828        78  SAPI      H1            -29.7704271494      -22.9125169350       23.0985091139  MEMB      78              0.0000000000
      8829        78  SAPI      P             -31.0451247750      -22.0734850989       20.7219380750  MEMB      78              0.0000000000
      8830        78  SAPI      O13           -32.3411084693      -22.7900690067       20.7666978571  MEMB      78              0.0000000000
      8831        78  SAPI      O14           -29.8434220591      -22.8214657906       20.3653115154  MEMB      78              0.0000000000
      8832        78  SAPI      O12           -30.7781056088      -21.3105622388       22.1580504132  MEMB      78              0.0000000000
      8833        78  SAPI      O11           -31.1960901024      -20.8446923017       19.7572896756  MEMB      78              0.0000000000
      8834        78  SAPI      C1            -30.3386416712      -19.7328173246       19.7496081031  MEMB      78              0.0000000000
      8835        78  SAPI      HA            -30.8960937353      -18.7997697341       19.9143853163  MEMB      78              0.0000000000
      8836        78  SAPI      HB            -29.5195416449      -19.8015912322       20.5013182874  MEMB      78              0.0000000000
      8837        78  SAPI      C2            -29.7021619675      -19.5368610473       18.4030475988  MEMB      78              0.0000000000
      8838        78  SAPI      HS            -29.6449063726      -18.4172580878       18.2798242782  MEMB      78              0.0000000000
      8839        78  SAPI      O21           -30.4184085323      -20.1812521274       17.3111665887  MEMB      78              0.0000000000
      8840        78  SAPI      C21           -31.3549759152      -19.4679249906       16.7409314059  MEMB      78              0.0000000000
      8841        78  SAPI      O22           -31.6070356337      -18.3129767124       17.0335603651  MEMB      78              0.0000000000
      8842        78  SAPI      C22           -32.0912029996      -20.2359338634       15.6225804707  MEMB      78              0.0000000000
      8843        78  SAPI      H2R           -31.6596395134      -21.2311533437       15.4383391208  MEMB      78              0.0000000000
      8844        78  SAPI      H2S           -33.1504694505      -20.4105717205       15.9038781047  MEMB      78              0.0000000000
      8845        78  SAPI      C3            -28.2800145370      -20.1297511494       18.5546691432  MEMB      78              0.0000000000
      8846        78  SAPI      HX            -27.6466876404      -19.6964253878       19.3474645203  MEMB      78              0.0000000000
      8847        78  SAPI      HY            -27.6840495357      -19.9102492652       17.7629508152  MEMB      78              0.0000000000
      8848        78  SAPI      O31           -28.1803500904      -21.4852559775       18.3345949945  MEMB      78              0.0000000000
      8849        78  SAPI      C31           -28.3571742403      -21.8683269067       17.0532740622  MEMB      78              0.0000000000
      8850        78  SAPI      O32           -28.3644546558      -21.1847465070       16.0570536020  MEMB      78              0.0000000000
      8851        78  SAPI      C32           -28.4308592760      -23.2968925903       17.0885764071  MEMB      78              0.0000000000
      8852        78  SAPI      H2X           -29.1303130192      -23.6605668582       17.8128911746  MEMB      78              0.0000000000
      8853        78  SAPI      H2Y           -27.4425618919      -23.2799717347       17.4959696695  MEMB      78              0.0000000000
      8854        78  SAPI      C23           -32.1761923856      -19.3491930405       14.3792142516  MEMB      78              0.0000000000
      8855        78  SAPI      H3R           -32.7598274382      -18.4457979886       14.6556491277  MEMB      78              0.0000000000
      8856        78  SAPI      H3S           -32.6393093303      -19.8793938028       13.5227043327  MEMB      78              0.0000000000
      8857        78  SAPI      C24           -30.8744195785      -18.8072488397       13.8669461265  MEMB      78              0.0000000000
      8858        78  SAPI      H4R           -30.4417199381      -18.1797851184       14.6769238126  MEMB      78              0.0000000000
      8859        78  SAPI      H4S           -31.1418871645      -18.0300782318       13.1148232265  MEMB      78              0.0000000000
      8860        78  SAPI      C25           -29.9880026647      -19.8957019314       13.2776005930  MEMB      78              0.0000000000
      8861        78  SAPI      H5R           -29.1859956566      -20.2670433139       13.9411594281  MEMB      78              0.0000000000
      8862        78  SAPI      C26           -29.8864035751      -20.1805667753       11.9585748137  MEMB      78              0.0000000000
      8863        78  SAPI      H6R           -28.9579520398      -20.6785113462       11.6130071947  MEMB      78              0.0000000000
      8864        78  SAPI      C27           -30.6008768276      -19.5105530721       10.7862506903  MEMB      78              0.0000000000
      8865        78  SAPI      H7R           -29.9787549164      -19.1332530945        9.9635336840  MEMB      78              0.0000000000
      8866        78  SAPI      H7S           -31.1826275932      -18.6187874302       11.1031243977  MEMB      78              0.0000000000
      8867        78  SAPI      C28           -31.2646114320      -20.5548641779       10.0073272757  MEMB      78              0.0000000000
      8868        78  SAPI      H8R           -32.0732658062      -20.9548099520       10.5952209319  MEMB      78              0.0000000000
      8869        78  SAPI      C29           -31.0430522973      -21.0003760538        8.7511874076  MEMB      78              0.0000000000
      8870        78  SAPI      H9R           -31.7073802594      -21.7433724741        8.3514517365  MEMB      78              0.0000000000
      8871        78  SAPI      C210          -30.0765868133      -20.6140945675        7.6943724743  MEMB      78              0.0000000000
      8872        78  SAPI      H10R          -29.6697507853      -21.4507536880        7.0832686673  MEMB      78              0.0000000000
      8873        78  SAPI      H10S          -29.1415187242      -20.2837858396        8.1900279074  MEMB      78              0.0000000000
      8874        78  SAPI      C211          -30.8362131890      -19.5571423121        6.8800858606  MEMB      78              0.0000000000
      8875        78  SAPI      H11R          -31.1221162400      -18.6373321301        7.3915424566  MEMB      78              0.0000000000
      8876        78  SAPI      C212          -31.4018445213      -19.5496442017        5.7112140584  MEMB      78              0.0000000000
      8877        78  SAPI      H12R          -31.6055834361      -18.5822204655        5.2104317643  MEMB      78              0.0000000000
      8878        78  SAPI      C213          -31.3756994768      -20.7720841121        4.9522044883  MEMB      78              0.0000000000
      8879        78  SAPI      H13R          -32.2924126764      -20.7358333674        4.3828567732  MEMB      78              0.0000000000
      8880        78  SAPI      H13S          -31.3599577795      -21.6192163755        5.6467888624  MEMB      78              0.0000000000
      8881        78  SAPI      C214          -30.4191201523      -21.3070622180        4.0703552293  MEMB      78              0.0000000000
      8882        78  SAPI      H14R          -29.4378807005      -21.5892123185        4.5002077323  MEMB      78              0.0000000000
      8883        78  SAPI      C215          -30.4806558406      -21.1505277277        2.8052288618  MEMB      78              0.0000000000
      8884        78  SAPI      H15R          -29.5512074012      -21.5630731955        2.5221005954  MEMB      78              0.0000000000
      8885        78  SAPI      C216          -31.3730177029      -20.4292140000        1.7994054251  MEMB      78              0.0000000000
      8886        78  SAPI      H16R          -30.8991934950      -20.2867226498        0.7946816896  MEMB      78              0.0000000000
      8887        78  SAPI      H16S          -31.6070220791      -19.3691642863        2.0791046614  MEMB      78              0.0000000000
      8888        78  SAPI      C217          -32.5582860844      -21.2820605595        1.6088472733  MEMB      78              0.0000000000
      8889        78  SAPI      H17R          -33.0831138018      -21.2085946787        2.5825749935  MEMB      78              0.0000000000
      8890        78  SAPI      H17S          -32.1690247724      -22.3125270077        1.4252611979  MEMB      78              0.0000000000
      8891        78  SAPI      C218          -33.3406939283      -20.7651677121        0.4049703130  MEMB      78              0.0000000000
      8892        78  SAPI      H18R          -32.6344332049      -20.7079484730       -0.4496216934  MEMB      78              0.0000000000
      8893        78  SAPI      H18S          -33.7075402421      -19.7598676728        0.6623264213  MEMB      78              0.0000000000
      8894        78  SAPI      C219          -34.5105139776      -21.5661961514       -0.1231456896  MEMB      78              0.0000000000
      8895        78  SAPI      H19R          -34.7058751065      -21.4249097704       -1.1864486309  MEMB      78              0.0000000000
      8896        78  SAPI      H19S          -35.4025493631      -21.4013022073        0.4262738774  MEMB      78              0.0000000000
      8897        78  SAPI      C220          -34.3760596224      -22.9578916797        0.1006036685  MEMB      78              0.0000000000
      8898        78  SAPI      H20R          -34.3144459054      -22.9982833586        1.1999979386  MEMB      78              0.0000000000
      8899        78  SAPI      H20S          -33.4021468819      -23.2896836127       -0.2499705937  MEMB      78              0.0000000000
      8900        78  SAPI      H20T          -35.1718181441      -23.6584277370       -0.2367913063  MEMB      78              0.0000000000
      8901        78  SAPI      C33           -28.3358008621      -24.0814396617       15.8205731226  MEMB      78              0.0000000000
      8902        78  SAPI      H3X           -27.8291877021      -25.0738731949       15.9024563056  MEMB      78              0.0000000000
      8903        78  SAPI      H3Y           -27.5660572457      -23.4169924931       15.5474177908  MEMB      78              0.0000000000
      8904        78  SAPI      C34           -29.4850398081      -23.8351770959       14.8537034300  MEMB      78              0.0000000000
      8905        78  SAPI      H4X           -29.6042953576      -22.7565116103       14.7127872886  MEMB      78              0.0000000000
      8906        78  SAPI      H4Y           -30.3051625060      -24.3132138116       15.4278873016  MEMB      78              0.0000000000
      8907        78  SAPI      C35           -29.4417220316      -24.3407025812       13.4111016871  MEMB      78              0.0000000000
      8908        78  SAPI      H5X           -30.4112360625      -24.7151489948       13.0408406329  MEMB      78              0.0000000000
      8909        78  SAPI      H5Y           -28.7238734854      -25.0951126947       13.6563781710  MEMB      78              0.0000000000
      8910        78  SAPI      C36           -28.6882123189      -23.8022085833       12.2245474046  MEMB      78              0.0000000000
      8911        78  SAPI      H6X           -27.6343399031      -23.9300397717       12.2418013895  MEMB      78              0.0000000000
      8912        78  SAPI      H6Y           -28.8169233283      -22.7337659135       12.1701821073  MEMB      78              0.0000000000
      8913        78  SAPI      C37           -28.6165895173      -24.6264406062       10.9862404512  MEMB      78              0.0000000000
      8914        78  SAPI      H7X           -29.6596713294      -24.8098490708       10.7200585583  MEMB      78              0.0000000000
      8915        78  SAPI      H7Y           -28.0005277042      -25.5846471802       11.0178972451  MEMB      78              0.0000000000
      8916        78  SAPI      C38           -27.9048082943      -23.8758209988        9.9674371097  MEMB      78              0.0000000000
      8917        78  SAPI      H8X           -26.8808536373      -23.7035418913       10.0650352615  MEMB      78              0.0000000000
      8918        78  SAPI      H8Y           -28.1397868573      -22.8138940640        9.8803334177  MEMB      78              0.0000000000
      8919        78  SAPI      C39           -27.8736181072      -24.7289070915        8.7962601843  MEMB      78              0.0000000000
      8920        78  SAPI      H9X           -28.1309645905      -25.7927023547        8.9732895225  MEMB      78              0.0000000000
      8921        78  SAPI      H9Y           -26.8224283766      -24.9164352784        8.6813328938  MEMB      78              0.0000000000
      8922        78  SAPI      C310          -28.6215633881      -23.7614606599        7.9013015072  MEMB      78              0.0000000000
      8923        78  SAPI      H10X          -27.9562795961      -22.9019619617        7.6419056059  MEMB      78              0.0000000000
      8924        78  SAPI      H10Y          -29.6013739880      -23.5876845820        8.3721498058  MEMB      78              0.0000000000
      8925        78  SAPI      C311          -29.0676361797      -24.4097178995        6.7064987356  MEMB      78              0.0000000000
      8926        78  SAPI      H11X          -29.4942876824      -25.2802674167        7.1967031780  MEMB      78              0.0000000000
      8927        78  SAPI      H11Y          -28.0747821063      -24.4505051356        6.3991997749  MEMB      78              0.0000000000
      8928        78  SAPI      C312          -29.9349840436      -24.1198938184        5.5239417738  MEMB      78              0.0000000000
      8929        78  SAPI      H12X          -29.8285837840      -23.0590771104        5.5060059154  MEMB      78              0.0000000000
      8930        78  SAPI      H12Y          -30.9043125692      -24.5097415800        5.8832811709  MEMB      78              0.0000000000
      8931        78  SAPI      C313          -29.6531540781      -24.6201989876        4.0858504322  MEMB      78              0.0000000000
      8932        78  SAPI      H13X          -29.7591851519      -25.6824327297        3.8457181454  MEMB      78              0.0000000000
      8933        78  SAPI      H13Y          -28.6877807745      -24.3317616902        3.6344792939  MEMB      78              0.0000000000
      8934        78  SAPI      C314          -30.8152614447      -24.4421363058        3.2064469261  MEMB      78              0.0000000000
      8935        78  SAPI      H14X          -31.1167985260      -23.4147317984        3.1442337550  MEMB      78              0.0000000000
      8936        78  SAPI      H14Y          -31.6438087641      -24.9846734183        3.7185600613  MEMB      78              0.0000000000
      8937        78  SAPI      C315          -30.5452808396      -24.9467697320        1.7970799193  MEMB      78              0.0000000000
      8938        78  SAPI      H15X          -31.3833199615      -24.5083625068        1.2529059592  MEMB      78              0.0000000000
      8939        78  SAPI      H15Y          -30.5332085829      -26.0552893602        1.7249953343  MEMB      78              0.0000000000
      8940        78  SAPI      C316          -29.4092299363      -24.2663314766        1.1302824332  MEMB      78              0.0000000000
      8941        78  SAPI      H16X          -28.5237390292      -24.6934075889        1.5809135275  MEMB      78              0.0000000000
      8942        78  SAPI      H16Y          -29.5170972016      -23.1947514060        1.3062378248  MEMB      78              0.0000000000
      8943        78  SAPI      C317          -29.2043577842      -24.4176804614       -0.3184884689  MEMB      78              0.0000000000
      8944        78  SAPI      H17X          -29.7637661847      -24.2049100113       -1.1470368157  MEMB      78              0.0000000000
      8945        78  SAPI      H17Y          -29.1906565730      -25.5141472564       -0.4988529648  MEMB      78              0.0000000000
      8946        78  SAPI      C318          -28.3511473065      -23.3103788107       -0.9391146776  MEMB      78              0.0000000000
      8947        78  SAPI      H18X          -28.2162562735      -23.2449117397       -2.0354619214  MEMB      78              0.0000000000
      8948        78  SAPI      H18Y          -27.3792024243      -23.7274997191       -0.7038618396  MEMB      78              0.0000000000
      8949        78  SAPI      H18Z          -28.5685394038      -22.3011273932       -0.5906632247  MEMB      78              0.0000000000
      8950        79  OSM       N              22.2135949733      -32.7783253564       22.8147083823  MEMB      79              0.0000000000
      8951        79  OSM       C15            23.6188926361      -33.0333107091       23.1872118515  MEMB      79              0.0000000000
      8952        79  OSM       H15A           24.2342131955      -32.2779810290       22.7130009397  MEMB      79              0.0000000000
      8953        79  OSM       H15B           23.9417312939      -34.0107971123       22.8707342087  MEMB      79              0.0000000000
      8954        79  OSM       H15C           23.6946356366      -32.9549019483       24.2620360898  MEMB      79              0.0000000000
      8955        79  OSM       C14            21.2934568015      -33.7311785493       23.4792336977  MEMB      79              0.0000000000
      8956        79  OSM       H14A           20.2715624629      -33.5679122800       23.1293131743  MEMB      79              0.0000000000
      8957        79  OSM       H14B           21.3116944569      -33.5790241600       24.5434325011  MEMB      79              0.0000000000
      8958        79  OSM       H14C           21.5824136924      -34.7426569293       23.2421643633  MEMB      79              0.0000000000
      8959        79  OSM       C13            21.8994497867      -31.3844407805       23.2619383647  MEMB      79              0.0000000000
      8960        79  OSM       H13A           21.8689399208      -31.3077924542       24.3389934065  MEMB      79              0.0000000000
      8961        79  OSM       H13B           20.9533567699      -31.0332354089       22.8523653458  MEMB      79              0.0000000000
      8962        79  OSM       H13C           22.6226576172      -30.6848496150       22.8479204923  MEMB      79              0.0000000000
      8963        79  OSM       C12            22.0513884489      -32.9679091605       21.3081294735  MEMB      79              0.0000000000
      8964        79  OSM       H12A           20.9943086187      -32.9955114684       21.0454137255  MEMB      79              0.0000000000
      8965        79  OSM       H12B           22.4944751458      -33.9234605613       21.0667274263  MEMB      79              0.0000000000
      8966        79  OSM       C11            22.7217028809      -32.0049830866       20.2995313460  MEMB      79              0.0000000000
      8967        79  OSM       H11A           22.6375997014      -32.4992239699       19.2933878273  MEMB      79              0.0000000000
      8968        79  OSM       H11B           23.7891228637      -31.8935812065       20.5409216120  MEMB      79              0.0000000000
      8969        79  OSM       P              20.9175508860      -30.3469986407       19.3923747340  MEMB      79              0.0000000000
      8970        79  OSM       O13            20.0023477560      -31.4959799586       19.5595774282  MEMB      79              0.0000000000
      8971        79  OSM       O14            20.5699893926      -28.9679307662       19.7233127426  MEMB      79              0.0000000000
      8972        79  OSM       O11            21.6066656837      -30.3384666705       17.9828766268  MEMB      79              0.0000000000
      8973        79  OSM       O12            22.1706934279      -30.7031178862       20.3137852487  MEMB      79              0.0000000000
      8974        79  OSM       C1S            22.5117380008      -29.2693416848       17.8098826473  MEMB      79              0.0000000000
      8975        79  OSM       H1S            23.4297510808      -29.3825054301       18.4249231539  MEMB      79              0.0000000000
      8976        79  OSM       H1T            22.1145035595      -28.2292547783       18.0030256731  MEMB      79              0.0000000000
      8977        79  OSM       NF             24.2586830358      -28.9571091435       16.4944950478  MEMB      79              0.0000000000
      8978        79  OSM       HNF            24.3972834744      -28.0967053122       16.0166556569  MEMB      79              0.0000000000
      8979        79  OSM       C2S            22.7922993234      -29.3440645989       16.3926017787  MEMB      79              0.0000000000
      8980        79  OSM       H2S            22.7491879447      -30.2900515471       15.8245014552  MEMB      79              0.0000000000
      8981        79  OSM       C3S            21.5678424910      -28.3905753448       15.7306735975  MEMB      79              0.0000000000
      8982        79  OSM       H3S            21.8616782282      -27.4642036573       16.2337288926  MEMB      79              0.0000000000
      8983        79  OSM       O3             20.2683100380      -28.7959408307       15.8930908921  MEMB      79              0.0000000000
      8984        79  OSM       HO3            20.6455580839      -29.6015514155       16.2451434227  MEMB      79              0.0000000000
      8985        79  OSM       C4S            21.9125351144      -28.4444965105       14.4544597967  MEMB      79              0.0000000000
      8986        79  OSM       H4S            22.0313169303      -29.4442318526       14.1131227538  MEMB      79              0.0000000000
      8987        79  OSM       C5S            22.1061518243      -27.5202971227       13.6725358653  MEMB      79              0.0000000000
      8988        79  OSM       H5S            22.5684136252      -26.6070196970       14.3307544902  MEMB      79              0.0000000000
      8989        79  OSM       C6S            22.8068322789      -28.0313653021       12.0724542323  MEMB      79              0.0000000000
      8990        79  OSM       H6S            23.7824628041      -28.5443046215       11.5110644394  MEMB      79              0.0000000000
      8991        79  OSM       H6T            24.2530696264      -27.2679777847       11.5453597869  MEMB      79              0.0000000000
      8992        79  OSM       C7S            21.1628354758      -26.9581235556       11.4466080322  MEMB      79              0.0000000000
      8993        79  OSM       H7S            21.0228405901      -25.7415714883       11.4415474757  MEMB      79              0.0000000000
      8994        79  OSM       H7T            20.2884899392      -27.1985241779       11.8509125499  MEMB      79              0.0000000000
      8995        79  OSM       C8S            20.6707921800      -27.3249300077        9.6420566378  MEMB      79              0.0000000000
      8996        79  OSM       H8S            21.1121082965      -26.5205345582        8.9645687116  MEMB      79              0.0000000000
      8997        79  OSM       H8T            20.7614999400      -26.4284692056        8.9867487399  MEMB      79              0.0000000000
      8998        79  OSM       C9S            21.1123585623      -29.1938659429        9.1206423634  MEMB      79              0.0000000000
      8999        79  OSM       H9S            20.5343688908      -29.0055599536        9.7351387848  MEMB      79              0.0000000000
      9000        79  OSM       H9T            21.6041642979      -29.7392629983       10.0349563921  MEMB      79              0.0000000000
      9001        79  OSM       C10S           21.2805912739      -29.9870837899        7.9717297625  MEMB      79              0.0000000000
      9002        79  OSM       H10S           22.3896564339      -30.2547186817        7.8555644766  MEMB      79              0.0000000000
      9003        79  OSM       H10T           20.9901889863      -29.3917786198        7.0880897614  MEMB      79              0.0000000000
      9004        79  OSM       C11S           20.3268095098      -31.0222826077        7.8263084145  MEMB      79              0.0000000000
      9005        79  OSM       H11S           19.3357233865      -30.5449239463        7.9916813960  MEMB      79              0.0000000000
      9006        79  OSM       H11T           20.6591089693      -31.6911878627        8.6376014116  MEMB      79              0.0000000000
      9007        79  OSM       C12S           20.4589879030      -31.4790234696        6.4050800703  MEMB      79              0.0000000000
      9008        79  OSM       H12S           21.5436383569      -31.6864509755        6.2283883056  MEMB      79              0.0000000000
      9009        79  OSM       H12T           20.1374992683      -30.6625765175        5.7094969472  MEMB      79              0.0000000000
      9010        79  OSM       C13S           19.6481057831      -32.7361925137        6.2928856837  MEMB      79              0.0000000000
      9011        79  OSM       H13S           18.5737938621      -32.5241334864        6.4853868951  MEMB      79              0.0000000000
      9012        79  OSM       H13T           20.0407344843      -33.3511360087        7.1424351537  MEMB      79              0.0000000000
      9013        79  OSM       C14S           19.8739847036      -33.4554659812        4.9684037926  MEMB      79              0.0000000000
      9014        79  OSM       H14S           19.3942491226      -34.4560553284        4.9637629882  MEMB      79              0.0000000000
      9015        79  OSM       H14T           20.9703240327      -33.6137078016        4.8887310561  MEMB      79              0.0000000000
      9016        79  OSM       C15S           19.4388940604      -32.7096199731        3.6981053758  MEMB      79              0.0000000000
      9017        79  OSM       H15S           18.6148610550      -31.9964844306        3.9116784828  MEMB      79              0.0000000000
      9018        79  OSM       H15T           19.0360987703      -33.4900334749        3.0092361145  MEMB      79              0.0000000000
      9019        79  OSM       C16S           20.6574708270      -32.0230133516        3.0499554428  MEMB      79              0.0000000000
      9020        79  OSM       H16S           21.4607848668      -32.7883538314        2.9273020312  MEMB      79              0.0000000000
      9021        79  OSM       H16T           21.0463621118      -31.2481233935        3.7460181063  MEMB      79              0.0000000000
      9022        79  OSM       C17S           20.4574493620      -31.4590160339        1.6370414799  MEMB      79              0.0000000000
      9023        79  OSM       H17S           20.1472181636      -32.3043376149        0.9877974852  MEMB      79              0.0000000000
      9024        79  OSM       H17T           21.4515436192      -31.1192055463        1.2595469239  MEMB      79              0.0000000000
      9025        79  OSM       C18S           19.4760529420      -30.2976206896        1.4895532429  MEMB      79              0.0000000000
      9026        79  OSM       H18S           19.4123122075      -30.0045075070        0.4153158162  MEMB      79              0.0000000000
      9027        79  OSM       H18T           19.8367319204      -29.4398109273        2.0958711543  MEMB      79              0.0000000000
      9028        79  OSM       H18U           18.4587435877      -30.5634084870        1.8459962091  MEMB      79              0.0000000000
      9029        79  OSM       C1F            25.3542147912      -29.7745086176       16.4233602196  MEMB      79              0.0000000000
      9030        79  OSM       OF             25.3253739876      -30.9038539947       16.8570038750  MEMB      79              0.0000000000
      9031        79  OSM       C2F            26.6890620426      -29.2517220672       15.8393559665  MEMB      79              0.0000000000
      9032        79  OSM       H2F            27.4455475236      -29.6792702540       16.5032342235  MEMB      79              0.0000000000
      9033        79  OSM       H2G            26.8137543448      -28.1734305275       15.9494906401  MEMB      79              0.0000000000
      9034        79  OSM       C3F            27.3444683853      -29.7202376364       14.4956218431  MEMB      79              0.0000000000
      9035        79  OSM       H3F            27.7301371362      -30.7357311807       14.6082422379  MEMB      79              0.0000000000
      9036        79  OSM       H3G            28.0971938565      -28.9366898762       14.2397616609  MEMB      79              0.0000000000
      9037        79  OSM       C4F            26.5530053775      -29.8761344614       13.2408983252  MEMB      79              0.0000000000
      9038        79  OSM       H4F            26.4740969720      -28.8730854674       13.1102960345  MEMB      79              0.0000000000
      9039        79  OSM       H4G            25.6159150948      -30.3881116465       13.3796609259  MEMB      79              0.0000000000
      9040        79  OSM       C5F            26.9883603924      -29.8169772754       11.8086659701  MEMB      79              0.0000000000
      9041        79  OSM       H5F            27.5982314432      -30.7171665847       11.7996711965  MEMB      79              0.0000000000
      9042        79  OSM       H5G            27.5376446160      -28.9281297799       11.4200558057  MEMB      79              0.0000000000
      9043        79  OSM       C6F            25.8421731051      -29.6861855502       10.8444473134  MEMB      79              0.0000000000
      9044        79  OSM       H6F            25.5510723672      -28.6434687324       10.7517345718  MEMB      79              0.0000000000
      9045        79  OSM       H6G            25.0298233337      -30.3693411330       11.1653360946  MEMB      79              0.0000000000
      9046        79  OSM       C7F            26.2738744604      -29.7160392617        9.4289137947  MEMB      79              0.0000000000
      9047        79  OSM       H7F            27.2127887632      -29.1371284596        9.3212873431  MEMB      79              0.0000000000
      9048        79  OSM       H7G            25.5937622194      -29.4918348284        8.5845561271  MEMB      79              0.0000000000
      9049        79  OSM       C8F            26.4746390766      -31.0882569077        9.3250417123  MEMB      79              0.0000000000
      9050        79  OSM       H8F            27.1148404557      -31.4254551514       10.1718804105  MEMB      79              0.0000000000
      9051        79  OSM       H8G            27.3226491630      -31.0659286219        8.5526749048  MEMB      79              0.0000000000
      9052        79  OSM       C9F            25.0832653133      -31.8364704733        9.0747338484  MEMB      79              0.0000000000
      9053        79  OSM       H9F            24.9027494179      -32.5699468870        9.9102930943  MEMB      79              0.0000000000
      9054        79  OSM       C10F           24.7265890506      -32.3490546361        7.8218010626  MEMB      79              0.0000000000
      9055        79  OSM       H10F           24.4635502149      -33.4666902516        8.1384864884  MEMB      79              0.0000000000
      9056        79  OSM       C11F           25.8234643930      -32.1715656499        6.5392885124  MEMB      79              0.0000000000
      9057        79  OSM       H11F           25.8428173097      -33.1703980422        6.2382794958  MEMB      79              0.0000000000
      9058        79  OSM       H11G           27.0159155581      -32.3237086768        6.4696559418  MEMB      79              0.0000000000
      9059        79  OSM       C12F           26.3715668894      -31.2270336494        5.5772091293  MEMB      79              0.0000000000
      9060        79  OSM       H12F           27.3164884173      -31.3163860415        4.9443543940  MEMB      79              0.0000000000
      9061        79  OSM       H12G           26.6665374164      -30.5667163818        6.4307477016  MEMB      79              0.0000000000
      9062        79  OSM       C13F           25.0989080480      -31.6242966318        4.9126377533  MEMB      79              0.0000000000
      9063        79  OSM       H13F           24.3552206865      -32.4333124766        5.2651631723  MEMB      79              0.0000000000
      9064        79  OSM       H13G           25.4127616468      -31.9548174362        3.9240483084  MEMB      79              0.0000000000
      9065        79  OSM       C14F           24.3174220752      -30.4513243169        5.0677231154  MEMB      79              0.0000000000
      9066        79  OSM       H14F           23.8052852610      -30.3797882840        6.0657101305  MEMB      79              0.0000000000
      9067        79  OSM       H14G           23.5804748760      -30.5472626809        4.2712184626  MEMB      79              0.0000000000
      9068        79  OSM       C15F           25.2070144767      -29.3029014957        4.7406569910  MEMB      79              0.0000000000
      9069        79  OSM       H15F           25.5875174409      -29.2703115964        3.7208297221  MEMB      79              0.0000000000
      9070        79  OSM       H15G           25.9905462514      -29.0050941938        5.5176445278  MEMB      79              0.0000000000
      9071        79  OSM       C16F           24.2590778321      -28.2375207991        4.6379248747  MEMB      79              0.0000000000
      9072        79  OSM       H16F           24.4600268955      -27.2035481763        4.9425078346  MEMB      79              0.0000000000
      9073        79  OSM       H16G           24.2946926580      -28.4293409095        5.6377786532  MEMB      79              0.0000000000
      9074        79  OSM       C17F           23.1283193110      -28.1889625343        3.5925994575  MEMB      79              0.0000000000
      9075        79  OSM       H17F           22.4433289594      -27.3027499369        3.6858968475  MEMB      79              0.0000000000
      9076        79  OSM       H17G           22.4281418257      -29.0166068137        3.7261332998  MEMB      79              0.0000000000
      9077        79  OSM       C18F           23.3394905240      -27.5335171154        2.3271424142  MEMB      79              0.0000000000
      9078        79  OSM       H18F           23.6390282685      -26.4588321773        2.5692308798  MEMB      79              0.0000000000
      9079        79  OSM       H18G           22.3453175683      -27.5912448348        1.8278913697  MEMB      79              0.0000000000
      9080        79  OSM       H18H           24.1320599844      -28.2160857168        2.0019930640  MEMB      79              0.0000000000
      9081        80  SAPE      N              18.1587827254      -36.4630138385       20.1197431188  MEMB      80              0.0000000000
      9082        80  SAPE      HN1            19.0262313024      -35.9751667024       20.4112898973  MEMB      80              0.0000000000
      9083        80  SAPE      HN2            17.5659273243      -36.5685235203       21.0062790666  MEMB      80              0.0000000000
      9084        80  SAPE      HN3            18.2998700159      -37.4537511555       19.8273768152  MEMB      80              0.0000000000
      9085        80  SAPE      C12            17.2664529415      -35.7626614698       19.0683796810  MEMB      80              0.0000000000
      9086        80  SAPE      H12A           17.7767943339      -35.8481434385       18.1063248395  MEMB      80              0.0000000000
      9087        80  SAPE      H12B           17.2671849318      -34.7301952485       19.3825918094  MEMB      80              0.0000000000
      9088        80  SAPE      C11            15.7609836499      -36.1915864268       18.8957907440  MEMB      80              0.0000000000
      9089        80  SAPE      H11A           15.7507949293      -37.3034114434       18.8075453311  MEMB      80              0.0000000000
      9090        80  SAPE      H11B           15.2376249343      -35.8488940575       17.9812401231  MEMB      80              0.0000000000
      9091        80  SAPE      P              13.8477616187      -34.7937894167       20.2725836136  MEMB      80              0.0000000000
      9092        80  SAPE      O13            13.2248012396      -35.0835754941       21.5928581305  MEMB      80              0.0000000000
      9093        80  SAPE      O14            14.3840994733      -33.4583544566       20.0423554401  MEMB      80              0.0000000000
      9094        80  SAPE      O12            15.0357067088      -35.7910578883       20.0390679741  MEMB      80              0.0000000000
      9095        80  SAPE      O11            12.9383045399      -35.2403929487       19.0248510991  MEMB      80              0.0000000000
      9096        80  SAPE      C1             12.1995010375      -36.4247564702       19.2412382046  MEMB      80              0.0000000000
      9097        80  SAPE      HA             12.8524023897      -37.2151263271       19.7208277990  MEMB      80              0.0000000000
      9098        80  SAPE      HB             11.3414077444      -36.0623303163       19.8503396136  MEMB      80              0.0000000000
      9099        80  SAPE      C2             11.5073166299      -37.1960167200       18.0670882249  MEMB      80              0.0000000000
      9100        80  SAPE      HS             10.9685282227      -38.1223352378       18.4159021029  MEMB      80              0.0000000000
      9101        80  SAPE      O21            12.5558100940      -37.6000366990       17.2215254454  MEMB      80              0.0000000000
      9102        80  SAPE      C21            12.2286432898      -37.9751994855       16.0193129195  MEMB      80              0.0000000000
      9103        80  SAPE      O22            11.1094606576      -38.2514447527       15.6147098213  MEMB      80              0.0000000000
      9104        80  SAPE      C22            13.5717532562      -38.2594562824       15.3578602769  MEMB      80              0.0000000000
      9105        80  SAPE      H2R            13.9053988450      -37.2610071346       15.0870977527  MEMB      80              0.0000000000
      9106        80  SAPE      H2S            14.2475485846      -38.7891047120       16.0791955246  MEMB      80              0.0000000000
      9107        80  SAPE      C3             10.4671748944      -36.2875167680       17.3854860180  MEMB      80              0.0000000000
      9108        80  SAPE      HX              9.6475430039      -36.0264630610       18.0616346741  MEMB      80              0.0000000000
      9109        80  SAPE      HY              9.9355101205      -36.7756785088       16.5514483821  MEMB      80              0.0000000000
      9110        80  SAPE      O31            11.0910401496      -35.0851475226       17.0204112359  MEMB      80              0.0000000000
      9111        80  SAPE      C31            11.5251506514      -35.0498254367       15.7789065353  MEMB      80              0.0000000000
      9112        80  SAPE      O32            11.2175417923      -35.7955967255       14.8746324122  MEMB      80              0.0000000000
      9113        80  SAPE      C32            12.3653848949      -33.8409477673       15.6085128586  MEMB      80              0.0000000000
      9114        80  SAPE      H2X            12.1252080260      -33.1460574817       16.4356368916  MEMB      80              0.0000000000
      9115        80  SAPE      H2Y            12.0562352809      -33.3720400265       14.6550485554  MEMB      80              0.0000000000
      9116        80  SAPE      C23            13.4787351720      -39.0132956482       14.0442211748  MEMB      80              0.0000000000
      9117        80  SAPE      H3R            12.5305931765      -38.8460497506       13.4991568638  MEMB      80              0.0000000000
      9118        80  SAPE      H3S            13.5740792608      -40.0148984065       14.4005613356  MEMB      80              0.0000000000
      9119        80  SAPE      C24            14.6809199020      -39.4368344816       13.2403023868  MEMB      80              0.0000000000
      9120        80  SAPE      H4R            14.3422905942      -40.1935229709       12.4888382325  MEMB      80              0.0000000000
      9121        80  SAPE      H4S            15.4350517690      -39.9172391938       13.9108151255  MEMB      80              0.0000000000
      9122        80  SAPE      C25            15.1749280348      -38.1977085188       12.6472862328  MEMB      80              0.0000000000
      9123        80  SAPE      H5R            15.9353052939      -37.7061525436       13.2613305958  MEMB      80              0.0000000000
      9124        80  SAPE      C26            14.6980449334      -37.6348740232       11.5375893835  MEMB      80              0.0000000000
      9125        80  SAPE      H6R            15.1566585409      -36.7094761678       11.2185589998  MEMB      80              0.0000000000
      9126        80  SAPE      C27            13.5909994136      -38.0701132980       10.6251439029  MEMB      80              0.0000000000
      9127        80  SAPE      H7R            13.4678071926      -39.1772823210       10.5155842096  MEMB      80              0.0000000000
      9128        80  SAPE      H7S            13.7893324268      -37.7333419289        9.5938424837  MEMB      80              0.0000000000
      9129        80  SAPE      C28            12.2940435931      -37.4821634994       11.0549549596  MEMB      80              0.0000000000
      9130        80  SAPE      H8R            11.8701704869      -38.0874857109       11.8492996745  MEMB      80              0.0000000000
      9131        80  SAPE      C29            11.7103778726      -36.3015903067       10.8844049950  MEMB      80              0.0000000000
      9132        80  SAPE      H9R            10.6040740759      -36.2567741112       11.0162227206  MEMB      80              0.0000000000
      9133        80  SAPE      C210           12.3902143701      -35.2139650930       10.1327633510  MEMB      80              0.0000000000
      9134        80  SAPE      H10R           12.8272000036      -35.5465881501        9.1680121801  MEMB      80              0.0000000000
      9135        80  SAPE      H10S           13.2583110137      -34.9425047225       10.7699006602  MEMB      80              0.0000000000
      9136        80  SAPE      C211           11.4326348467      -34.0715579136        9.9813764695  MEMB      80              0.0000000000
      9137        80  SAPE      H11R           11.3004398053      -33.4393668929       10.8734546058  MEMB      80              0.0000000000
      9138        80  SAPE      C212           10.6756650152      -33.8403355321        8.8978135725  MEMB      80              0.0000000000
      9139        80  SAPE      H12R            9.9080050592      -33.0624997515        9.0001383869  MEMB      80              0.0000000000
      9140        80  SAPE      C213           10.6382147619      -34.6715717982        7.6317286770  MEMB      80              0.0000000000
      9141        80  SAPE      H13R            9.8201750157      -34.3315961139        6.9645752401  MEMB      80              0.0000000000
      9142        80  SAPE      H13S           10.3707137883      -35.7064212004        7.9342582481  MEMB      80              0.0000000000
      9143        80  SAPE      C214           11.8630776032      -34.6961898131        6.7644310012  MEMB      80              0.0000000000
      9144        80  SAPE      H14R           12.8267229333      -34.4756388527        7.2491547222  MEMB      80              0.0000000000
      9145        80  SAPE      C215           11.8342512602      -34.9261948477        5.4465226820  MEMB      80              0.0000000000
      9146        80  SAPE      H15R           12.8283912637      -35.1257267275        4.9847652114  MEMB      80              0.0000000000
      9147        80  SAPE      C216           10.5847382031      -35.2163614524        4.5799072573  MEMB      80              0.0000000000
      9148        80  SAPE      H16R            9.7364266790      -35.5508944916        5.1755339770  MEMB      80              0.0000000000
      9149        80  SAPE      H16S           10.4366634083      -36.1153340828        3.9448621715  MEMB      80              0.0000000000
      9150        80  SAPE      C217           10.4621041886      -34.3309232978        3.3575441954  MEMB      80              0.0000000000
      9151        80  SAPE      H17R           10.0537516050      -33.3998762763        3.7645395320  MEMB      80              0.0000000000
      9152        80  SAPE      H17S            9.7120646802      -34.8059789801        2.6741995966  MEMB      80              0.0000000000
      9153        80  SAPE      C218           11.7411655744      -34.1215370278        2.5214117832  MEMB      80              0.0000000000
      9154        80  SAPE      H18R           11.9510620082      -35.0614748143        1.9692736568  MEMB      80              0.0000000000
      9155        80  SAPE      H18S           12.6543371714      -33.9183221896        3.1257517843  MEMB      80              0.0000000000
      9156        80  SAPE      C219           11.5292931044      -32.9972364403        1.5150730406  MEMB      80              0.0000000000
      9157        80  SAPE      H19R           11.1659637682      -32.0692795709        2.0224937796  MEMB      80              0.0000000000
      9158        80  SAPE      H19S           10.7164658466      -33.2520453882        0.7992119079  MEMB      80              0.0000000000
      9159        80  SAPE      C220           12.7743088691      -32.6557362074        0.7341575474  MEMB      80              0.0000000000
      9160        80  SAPE      H20R           12.4621277612      -31.7578540429        0.2326518588  MEMB      80              0.0000000000
      9161        80  SAPE      H20S           13.0740291689      -33.3106316706       -0.0996472776  MEMB      80              0.0000000000
      9162        80  SAPE      H20T           13.6492417324      -32.3291102303        1.3228011060  MEMB      80              0.0000000000
      9163        80  SAPE      C33            13.8663633793      -34.1457439887       15.6422699189  MEMB      80              0.0000000000
      9164        80  SAPE      H3X            14.1357802841      -35.1655419833       16.0034875935  MEMB      80              0.0000000000
      9165        80  SAPE      H3Y            14.2497750818      -33.4631380238       16.4348060160  MEMB      80              0.0000000000
      9166        80  SAPE      C34            14.5054919234      -33.8172033896       14.2860366671  MEMB      80              0.0000000000
      9167        80  SAPE      H4X            14.2165008785      -32.7804464788       14.0023748074  MEMB      80              0.0000000000
      9168        80  SAPE      H4Y            14.1092290425      -34.4931593616       13.4962718490  MEMB      80              0.0000000000
      9169        80  SAPE      C35            16.0204735933      -33.9761996483       14.3226563225  MEMB      80              0.0000000000
      9170        80  SAPE      H5X            16.2480985301      -35.0557221503       14.4424013941  MEMB      80              0.0000000000
      9171        80  SAPE      H5Y            16.4160168590      -33.4377657016       15.2208453982  MEMB      80              0.0000000000
      9172        80  SAPE      C36            16.7681280897      -33.4473090889       13.0935666783  MEMB      80              0.0000000000
      9173        80  SAPE      H6X            17.8411273472      -33.7124298877       13.2703402162  MEMB      80              0.0000000000
      9174        80  SAPE      H6Y            16.6127854579      -32.3379876397       13.0575881966  MEMB      80              0.0000000000
      9175        80  SAPE      C37            16.4455292065      -33.9925288810       11.7371754354  MEMB      80              0.0000000000
      9176        80  SAPE      H7X            15.3759796827      -33.7329017043       11.6119838261  MEMB      80              0.0000000000
      9177        80  SAPE      H7Y            16.5736973540      -35.0958999512       11.7676409173  MEMB      80              0.0000000000
      9178        80  SAPE      C38            17.3058996137      -33.4044297667       10.6032757537  MEMB      80              0.0000000000
      9179        80  SAPE      H8X            18.3739991314      -33.2614060017       10.8730183713  MEMB      80              0.0000000000
      9180        80  SAPE      H8Y            16.9695484206      -32.3959656413       10.3282804468  MEMB      80              0.0000000000
      9181        80  SAPE      C39            17.2670892387      -34.3049732426        9.3733307888  MEMB      80              0.0000000000
      9182        80  SAPE      H9X            17.9009615803      -35.1843256609        9.6271789080  MEMB      80              0.0000000000
      9183        80  SAPE      H9Y            17.7380607433      -33.7789211483        8.5143986392  MEMB      80              0.0000000000
      9184        80  SAPE      C310           15.8576740533      -34.7784386415        8.9972951764  MEMB      80              0.0000000000
      9185        80  SAPE      H10X           15.1386135727      -33.9327872246        8.9804497355  MEMB      80              0.0000000000
      9186        80  SAPE      H10Y           15.4794158876      -35.4946844939        9.7565668638  MEMB      80              0.0000000000
      9187        80  SAPE      C311           15.8407034623      -35.4886827028        7.6490885626  MEMB      80              0.0000000000
      9188        80  SAPE      H11X           16.4223178912      -34.9437773930        6.8772346611  MEMB      80              0.0000000000
      9189        80  SAPE      H11Y           14.7800676293      -35.5219399454        7.3039761533  MEMB      80              0.0000000000
      9190        80  SAPE      C312           16.4525351070      -36.8885976591        7.7864068327  MEMB      80              0.0000000000
      9191        80  SAPE      H12X           15.7777606321      -37.4755206809        8.4636692530  MEMB      80              0.0000000000
      9192        80  SAPE      H12Y           17.4700242410      -36.8405816069        8.2029838611  MEMB      80              0.0000000000
      9193        80  SAPE      C313           16.6901953894      -37.5729779309        6.4546197277  MEMB      80              0.0000000000
      9194        80  SAPE      H13X           17.3305233221      -38.4780693838        6.4234098571  MEMB      80              0.0000000000
      9195        80  SAPE      H13Y           16.7632934945      -36.8545058099        5.6035156310  MEMB      80              0.0000000000
      9196        80  SAPE      C314           15.4623939100      -38.2094803379        6.1674309321  MEMB      80              0.0000000000
      9197        80  SAPE      H14X           14.8594234938      -37.2658925626        6.2003014049  MEMB      80              0.0000000000
      9198        80  SAPE      H14Y           15.1272971580      -38.7876002585        7.0642140381  MEMB      80              0.0000000000
      9199        80  SAPE      C315           15.4783853295      -39.1327977923        4.9212071368  MEMB      80              0.0000000000
      9200        80  SAPE      H15X           15.6950247273      -40.1765083019        5.2045397989  MEMB      80              0.0000000000
      9201        80  SAPE      H15Y           16.0576342838      -38.6541913534        4.0958828135  MEMB      80              0.0000000000
      9202        80  SAPE      C316           14.2398369522      -39.4654700252        4.1621235333  MEMB      80              0.0000000000
      9203        80  SAPE      H16X           14.1304152360      -38.5132127203        3.5309322077  MEMB      80              0.0000000000
      9204        80  SAPE      H16Y           13.3033790829      -39.8829886046        4.6021929217  MEMB      80              0.0000000000
      9205        80  SAPE      C317           14.2339763459      -40.4135474004        3.2666412448  MEMB      80              0.0000000000
      9206        80  SAPE      H17X           14.5097078850      -41.4277990637        3.2113656354  MEMB      80              0.0000000000
      9207        80  SAPE      H17Y           14.6236172815      -39.7561821617        2.4309182349  MEMB      80              0.0000000000
      9208        80  SAPE      C318           13.0611274762      -41.0904319806        2.9402160064  MEMB      80              0.0000000000
      9209        80  SAPE      H18X           13.2657440258      -40.6924028376        1.8885237308  MEMB      80              0.0000000000
      9210        80  SAPE      H18Y           11.9584747563      -40.9153685441        2.9551477895  MEMB      80              0.0000000000
      9211        80  SAPE      H18Z           12.2472851197      -41.6467102007        3.3613752893  MEMB      80              0.0000000000
      9212        81  CHL1      C3            -34.5200197309       17.6281727964       17.3427721241  MEMB      81              0.0000000000
      9213        81  CHL1      H3            -33.4848695274       17.6531391957       16.9151714846  MEMB      81              0.0000000000
      9214        81  CHL1      O3            -34.5872799024       18.2220437112       18.6414721518  MEMB      81              0.0000000000
      9215        81  CHL1      H3'           -33.9538113741       17.7439507088       19.1934613960  MEMB      81              0.0000000000
      9216        81  CHL1      C4            -35.4190845840       18.4299019352       16.3905703976  MEMB      81              0.0000000000
      9217        81  CHL1      H4A           -36.4283461516       18.4874990617       16.8255266087  MEMB      81              0.0000000000
      9218        81  CHL1      H4B           -35.0240265096       19.4614495446       16.3074027341  MEMB      81              0.0000000000
      9219        81  CHL1      C5            -35.5197369262       17.8318215547       15.0253941911  MEMB      81              0.0000000000
      9220        81  CHL1      C6            -35.1896005241       18.5297586862       13.9182444109  MEMB      81              0.0000000000
      9221        81  CHL1      H6            -34.9616283755       19.5797192012       13.9994765416  MEMB      81              0.0000000000
      9222        81  CHL1      C7            -35.1878795403       18.0195429729       12.5144260945  MEMB      81              0.0000000000
      9223        81  CHL1      H7A           -35.5288622123       18.7152038245       11.7283730051  MEMB      81              0.0000000000
      9224        81  CHL1      H7B           -34.1968714448       17.5906660724       12.2377270294  MEMB      81              0.0000000000
      9225        81  CHL1      C8            -36.1116778356       16.8904523250       12.4782909246  MEMB      81              0.0000000000
      9226        81  CHL1      H8            -37.1534005170       17.2361244728       12.6624563883  MEMB      81              0.0000000000
      9227        81  CHL1      C14           -35.9785956773       16.3636229057       11.0507027289  MEMB      81              0.0000000000
      9228        81  CHL1      H14           -34.9439788348       15.9511503743       10.8602311644  MEMB      81              0.0000000000
      9229        81  CHL1      C15           -36.3795745621       17.1402776827        9.7923747200  MEMB      81              0.0000000000
      9230        81  CHL1      H15A          -37.1985180864       17.8178240822       10.0739839884  MEMB      81              0.0000000000
      9231        81  CHL1      H15B          -35.4694083791       17.6339170731        9.4355808110  MEMB      81              0.0000000000
      9232        81  CHL1      C16           -36.8989704049       16.1757048512        8.7128208997  MEMB      81              0.0000000000
      9233        81  CHL1      H16A          -37.8842435371       16.3587346955        8.2601452507  MEMB      81              0.0000000000
      9234        81  CHL1      H16B          -36.1174088613       15.8887424054        7.9587771095  MEMB      81              0.0000000000
      9235        81  CHL1      C17           -37.1617664320       14.9605778762        9.5130588268  MEMB      81              0.0000000000
      9236        81  CHL1      H17           -36.0748865313       14.6996638932        9.5188696562  MEMB      81              0.0000000000
      9237        81  CHL1      C13           -36.8596832474       15.2967177146       11.0350948914  MEMB      81              0.0000000000
      9238        81  CHL1      C18           -38.1892066888       15.5533027093       11.4200045406  MEMB      81              0.0000000000
      9239        81  CHL1      H18A          -38.3296232667       15.6103439231       12.5167453348  MEMB      81              0.0000000000
      9240        81  CHL1      H18B          -38.7833300939       16.2195067256       10.8055590312  MEMB      81              0.0000000000
      9241        81  CHL1      H18C          -38.6405892829       14.6412262867       11.0647345054  MEMB      81              0.0000000000
      9242        81  CHL1      C12           -36.0596232952       14.5024803751       12.0706584973  MEMB      81              0.0000000000
      9243        81  CHL1      H12A          -36.7281300079       13.7189683007       12.2663200322  MEMB      81              0.0000000000
      9244        81  CHL1      H12B          -35.0070213327       14.2860375860       11.8082803280  MEMB      81              0.0000000000
      9245        81  CHL1      C11           -36.0466411160       14.7048787695       13.5035837071  MEMB      81              0.0000000000
      9246        81  CHL1      H11A          -37.0857456252       14.4978802091       13.8670305273  MEMB      81              0.0000000000
      9247        81  CHL1      H11B          -35.2851094172       13.9539886490       13.9078196403  MEMB      81              0.0000000000
      9248        81  CHL1      C9            -35.6044717715       15.9861456659       13.6320954076  MEMB      81              0.0000000000
      9249        81  CHL1      H9            -34.5074655012       15.8252054841       13.4622845752  MEMB      81              0.0000000000
      9250        81  CHL1      C10           -35.9188954239       16.3813104230       15.0483880824  MEMB      81              0.0000000000
      9251        81  CHL1      C19           -37.4559122030       16.2670048779       15.3226741481  MEMB      81              0.0000000000
      9252        81  CHL1      H19A          -38.0638375834       16.6002400278       14.4564162455  MEMB      81              0.0000000000
      9253        81  CHL1      H19B          -37.7692638510       15.2154294381       15.5221581313  MEMB      81              0.0000000000
      9254        81  CHL1      H19C          -37.7453927357       16.8804615461       16.1843575810  MEMB      81              0.0000000000
      9255        81  CHL1      C1            -35.1196321642       15.5098594270       16.0818061565  MEMB      81              0.0000000000
      9256        81  CHL1      H1A           -35.5933874313       14.5121688304       16.2560512444  MEMB      81              0.0000000000
      9257        81  CHL1      H1B           -34.0958806058       15.3227118111       15.6948706032  MEMB      81              0.0000000000
      9258        81  CHL1      C2            -35.0101468603       16.1821905869       17.4537942253  MEMB      81              0.0000000000
      9259        81  CHL1      H2A           -34.3517685566       15.5876982444       18.1193609449  MEMB      81              0.0000000000
      9260        81  CHL1      H2B           -36.0349649382       16.1801338442       17.8850396854  MEMB      81              0.0000000000
      9261        81  CHL1      C20           -38.2864904209       13.8644821486        8.7586878721  MEMB      81              0.0000000000
      9262        81  CHL1      H20           -39.0615289681       14.4698666369        8.4011183658  MEMB      81              0.0000000000
      9263        81  CHL1      C21           -39.1993557345       12.7179246239        9.6527586182  MEMB      81              0.0000000000
      9264        81  CHL1      H21A          -38.6208941961       11.7869654868        9.8681083285  MEMB      81              0.0000000000
      9265        81  CHL1      H21B          -39.0404763512       11.7036386457        9.4375204352  MEMB      81              0.0000000000
      9266        81  CHL1      H21C          -39.3309530314       12.7965841381       10.7211090973  MEMB      81              0.0000000000
      9267        81  CHL1      C22           -37.8823416931       13.6091605083        7.1958304442  MEMB      81              0.0000000000
      9268        81  CHL1      H22A          -37.1340871142       14.3091994018        6.8639244041  MEMB      81              0.0000000000
      9269        81  CHL1      H22B          -37.2277268860       12.8293458826        7.0789893879  MEMB      81              0.0000000000
      9270        81  CHL1      C23           -38.6822137777       13.1106373946        6.0656823887  MEMB      81              0.0000000000
      9271        81  CHL1      H23A          -39.1100833050       12.1893800836        6.2640388883  MEMB      81              0.0000000000
      9272        81  CHL1      H23B          -39.2927181683       13.9580492499        5.9333373839  MEMB      81              0.0000000000
      9273        81  CHL1      C24           -38.0771566325       12.5640894184        4.8046852779  MEMB      81              0.0000000000
      9274        81  CHL1      H24A          -37.0082246189       12.3694811952        4.8117427004  MEMB      81              0.0000000000
      9275        81  CHL1      H24B          -38.5530457111       11.5687764017        4.5595253218  MEMB      81              0.0000000000
      9276        81  CHL1      C25           -38.0200756015       13.6712929143        3.8414292520  MEMB      81              0.0000000000
      9277        81  CHL1      H25           -39.0694119966       14.0198872381        3.7312766391  MEMB      81              0.0000000000
      9278        81  CHL1      C26           -37.1160846259       14.8191985033        4.3084272161  MEMB      81              0.0000000000
      9279        81  CHL1      H26A          -37.5353340177       15.3450704332        5.1858170411  MEMB      81              0.0000000000
      9280        81  CHL1      H26B          -36.0796390791       14.4936031059        4.5671460865  MEMB      81              0.0000000000
      9281        81  CHL1      H26C          -37.0627087710       15.5209939854        3.4561272931  MEMB      81              0.0000000000
      9282        81  CHL1      C27           -37.4031665596       13.1330908319        2.5827974503  MEMB      81              0.0000000000
      9283        81  CHL1      H27A          -37.7407641721       12.1185979091        2.3925516607  MEMB      81              0.0000000000
      9284        81  CHL1      H27B          -37.6554098435       13.8501945321        1.7823629074  MEMB      81              0.0000000000
      9285        81  CHL1      H27C          -36.3132366738       12.9682546074        2.6655660834  MEMB      81              0.0000000000
      9286        82  SAPE      N             -37.8916255240      -14.1834595748       20.9783763581  MEMB      82              0.0000000000
      9287        82  SAPE      HN1           -36.8669874940      -14.1457317240       20.8194001811  MEMB      82              0.0000000000
      9288        82  SAPE      HN2           -38.3414946784      -13.2412091157       20.9094591349  MEMB      82              0.0000000000
      9289        82  SAPE      HN3           -38.0907074667      -14.6818118648       21.8673785978  MEMB      82              0.0000000000
      9290        82  SAPE      C12           -38.4030559558      -15.0075444812       19.8459481580  MEMB      82              0.0000000000
      9291        82  SAPE      H12A          -38.6134912895      -14.3198877846       19.0172122363  MEMB      82              0.0000000000
      9292        82  SAPE      H12B          -39.3623753341      -15.4724125841       20.1498446882  MEMB      82              0.0000000000
      9293        82  SAPE      C11           -37.3152965594      -15.9959024669       19.4318316051  MEMB      82              0.0000000000
      9294        82  SAPE      H11A          -36.3231073035      -15.5204177679       19.2731787668  MEMB      82              0.0000000000
      9295        82  SAPE      H11B          -37.6050976578      -16.4162694976       18.4354210440  MEMB      82              0.0000000000
      9296        82  SAPE      P             -37.4783552988      -18.4823210739       20.0019737562  MEMB      82              0.0000000000
      9297        82  SAPE      O13           -37.2321411350      -19.4324562368       21.1014867511  MEMB      82              0.0000000000
      9298        82  SAPE      O14           -38.7545779919      -18.5776714645       19.3063956295  MEMB      82              0.0000000000
      9299        82  SAPE      O12           -37.1668773904      -16.9814881571       20.4436457919  MEMB      82              0.0000000000
      9300        82  SAPE      O11           -36.4083608578      -18.6914462678       18.8580368452  MEMB      82              0.0000000000
      9301        82  SAPE      C1            -35.0969935816      -18.3885300431       19.2824417704  MEMB      82              0.0000000000
      9302        82  SAPE      HA            -34.9059540402      -17.2907533237       19.4078343318  MEMB      82              0.0000000000
      9303        82  SAPE      HB            -34.9045423063      -18.9160676327       20.2382970456  MEMB      82              0.0000000000
      9304        82  SAPE      C2            -34.0558639857      -18.8781789612       18.2851502183  MEMB      82              0.0000000000
      9305        82  SAPE      HS            -33.1980535467      -18.1947697704       18.5102577607  MEMB      82              0.0000000000
      9306        82  SAPE      O21           -34.4739602016      -18.7661788113       16.9148989819  MEMB      82              0.0000000000
      9307        82  SAPE      C21           -34.8203494879      -17.5860499442       16.4821726186  MEMB      82              0.0000000000
      9308        82  SAPE      O22           -34.6874185221      -16.5191984523       17.0534779600  MEMB      82              0.0000000000
      9309        82  SAPE      C22           -35.4028735576      -17.7622586013       15.0809916563  MEMB      82              0.0000000000
      9310        82  SAPE      H2R           -34.6109449396      -18.1256631160       14.4079183642  MEMB      82              0.0000000000
      9311        82  SAPE      H2S           -36.1677091692      -18.5547038636       15.1364177180  MEMB      82              0.0000000000
      9312        82  SAPE      C3            -33.6770514048      -20.3654257990       18.5655019883  MEMB      82              0.0000000000
      9313        82  SAPE      HX            -33.2802558863      -20.5045629259       19.5679993501  MEMB      82              0.0000000000
      9314        82  SAPE      HY            -32.8734820915      -20.7670943733       17.9390935768  MEMB      82              0.0000000000
      9315        82  SAPE      O31           -34.8139262301      -21.2005273378       18.5315313741  MEMB      82              0.0000000000
      9316        82  SAPE      C31           -34.9366128940      -22.0254292332       17.5514089627  MEMB      82              0.0000000000
      9317        82  SAPE      O32           -34.1841579685      -22.2803679134       16.6355022035  MEMB      82              0.0000000000
      9318        82  SAPE      C32           -36.3041449907      -22.5669522865       17.7040469022  MEMB      82              0.0000000000
      9319        82  SAPE      H2X           -36.1959428888      -23.2062457313       18.6073735328  MEMB      82              0.0000000000
      9320        82  SAPE      H2Y           -36.4218230511      -23.2914918418       16.9032985868  MEMB      82              0.0000000000
      9321        82  SAPE      C23           -35.9736873472      -16.4466673759       14.5224152087  MEMB      82              0.0000000000
      9322        82  SAPE      H3R           -36.0013392864      -16.4786253031       13.4093532876  MEMB      82              0.0000000000
      9323        82  SAPE      H3S           -35.2873478472      -15.6155370660       14.7902868286  MEMB      82              0.0000000000
      9324        82  SAPE      C24           -37.3960772137      -16.1164968657       15.0149010514  MEMB      82              0.0000000000
      9325        82  SAPE      H4R           -37.6701085958      -15.1629801546       14.5150706662  MEMB      82              0.0000000000
      9326        82  SAPE      H4S           -37.4563331017      -15.9007686312       16.0930340008  MEMB      82              0.0000000000
      9327        82  SAPE      C25           -38.3818560857      -17.1964101351       14.7395479976  MEMB      82              0.0000000000
      9328        82  SAPE      H5R           -38.5466364470      -17.9420317875       15.5409286141  MEMB      82              0.0000000000
      9329        82  SAPE      C26           -39.0421092091      -17.2937040822       13.5989426720  MEMB      82              0.0000000000
      9330        82  SAPE      H6R           -39.7132950132      -18.1485686372       13.5842391075  MEMB      82              0.0000000000
      9331        82  SAPE      C27           -38.9517484821      -16.3773037328       12.3880088575  MEMB      82              0.0000000000
      9332        82  SAPE      H7R           -38.6824158201      -15.3422449228       12.7078248821  MEMB      82              0.0000000000
      9333        82  SAPE      H7S           -39.9479775848      -16.2757882955       11.9165665100  MEMB      82              0.0000000000
      9334        82  SAPE      C28           -38.0247369849      -16.9107748135       11.3259621046  MEMB      82              0.0000000000
      9335        82  SAPE      H8R           -37.9897905069      -17.9898079217       11.2064226206  MEMB      82              0.0000000000
      9336        82  SAPE      C29           -37.2307358109      -16.2414471172       10.5094159746  MEMB      82              0.0000000000
      9337        82  SAPE      H9R           -36.5760140229      -16.8325195673        9.8240992737  MEMB      82              0.0000000000
      9338        82  SAPE      C210          -37.1147855165      -14.7562995330       10.5051046027  MEMB      82              0.0000000000
      9339        82  SAPE      H10R          -36.5290726927      -14.4614645155       11.4026498459  MEMB      82              0.0000000000
      9340        82  SAPE      H10S          -38.0036440776      -14.1200628782       10.5433986956  MEMB      82              0.0000000000
      9341        82  SAPE      C211          -36.4250866055      -14.6295333661        9.2091862272  MEMB      82              0.0000000000
      9342        82  SAPE      H11R          -35.4041846075      -14.9934320313        9.3137292854  MEMB      82              0.0000000000
      9343        82  SAPE      C212          -36.7292613357      -14.2224007859        8.0048527829  MEMB      82              0.0000000000
      9344        82  SAPE      H12R          -35.9187307920      -14.1851946817        7.2631788821  MEMB      82              0.0000000000
      9345        82  SAPE      C213          -38.0012757052      -13.7183247991        7.5382510766  MEMB      82              0.0000000000
      9346        82  SAPE      H13R          -38.7381949161      -13.5136009670        8.3192845219  MEMB      82              0.0000000000
      9347        82  SAPE      H13S          -38.2230646839      -14.6154310568        6.9657959703  MEMB      82              0.0000000000
      9348        82  SAPE      C214          -38.0600380050      -12.6224533784        6.5928606822  MEMB      82              0.0000000000
      9349        82  SAPE      H14R          -37.9371049830      -11.5685054375        6.9133928649  MEMB      82              0.0000000000
      9350        82  SAPE      C215          -37.9530501513      -12.7326743135        5.3304696604  MEMB      82              0.0000000000
      9351        82  SAPE      H15R          -37.8237274113      -11.7456686203        4.9101423827  MEMB      82              0.0000000000
      9352        82  SAPE      C216          -37.7328720697      -13.9499060451        4.5197979611  MEMB      82              0.0000000000
      9353        82  SAPE      H16R          -38.4079625346      -14.0525092817        3.6503115420  MEMB      82              0.0000000000
      9354        82  SAPE      H16S          -37.4726221505      -14.9034374311        5.0064193341  MEMB      82              0.0000000000
      9355        82  SAPE      C217          -36.5807389669      -13.6808806670        3.7280959704  MEMB      82              0.0000000000
      9356        82  SAPE      H17R          -35.6504559951      -13.2758019353        4.0957796241  MEMB      82              0.0000000000
      9357        82  SAPE      H17S          -36.7745224675      -12.9714654931        3.0874397656  MEMB      82              0.0000000000
      9358        82  SAPE      C218          -36.5783657345      -14.6128585837        2.5581614190  MEMB      82              0.0000000000
      9359        82  SAPE      H18R          -35.9227506379      -13.7007037002        1.8480021442  MEMB      82              0.0000000000
      9360        82  SAPE      H18S          -36.9685553943      -14.7841455732        1.5909864165  MEMB      82              0.0000000000
      9361        82  SAPE      C219          -35.8911343307      -16.3007733936        3.2624886124  MEMB      82              0.0000000000
      9362        82  SAPE      H19R          -36.7304456111      -16.7005758553        3.5942133287  MEMB      82              0.0000000000
      9363        82  SAPE      H19S          -35.1566265735      -16.1916094569        4.1656255015  MEMB      82              0.0000000000
      9364        82  SAPE      C220          -34.7565480913      -17.4196785853        2.5961101767  MEMB      82              0.0000000000
      9365        82  SAPE      H20R          -33.9765531742      -17.1054423392        1.8104675455  MEMB      82              0.0000000000
      9366        82  SAPE      H20S          -35.5727976561      -17.8017462149        2.0332250631  MEMB      82              0.0000000000
      9367        82  SAPE      H20T          -34.1180159759      -18.1040808320        3.2102744033  MEMB      82              0.0000000000
      9368        82  SAPE      C33           -37.3247511391      -21.3616762286       17.6403056313  MEMB      82              0.0000000000
      9369        82  SAPE      H3X           -36.9810883178      -20.5582908230       16.9982782718  MEMB      82              0.0000000000
      9370        82  SAPE      H3Y           -37.4245072503      -20.8588969221       18.6185073756  MEMB      82              0.0000000000
      9371        82  SAPE      C34           -38.7521653199      -21.6344088292       17.1815550840  MEMB      82              0.0000000000
      9372        82  SAPE      H4X           -39.5489373823      -20.9121652629       17.4320763806  MEMB      82              0.0000000000
      9373        82  SAPE      H4Y           -38.9843604997      -22.4615657678       17.8061650034  MEMB      82              0.0000000000
      9374        82  SAPE      C35           -38.8073513909      -21.9766898374       15.7217094955  MEMB      82              0.0000000000
      9375        82  SAPE      H5X           -39.7825351338      -22.4292750624       15.4125460692  MEMB      82              0.0000000000
      9376        82  SAPE      H5Y           -37.9126738639      -22.6160675617       15.5596158435  MEMB      82              0.0000000000
      9377        82  SAPE      C36           -38.4266891853      -20.8960863542       14.8099940333  MEMB      82              0.0000000000
      9378        82  SAPE      H6X           -37.4239648505      -20.5744593804       15.1609510590  MEMB      82              0.0000000000
      9379        82  SAPE      H6Y           -39.2142261287      -20.1363057476       14.9350742204  MEMB      82              0.0000000000
      9380        82  SAPE      C37           -38.2667060378      -21.3606716001       13.3765439116  MEMB      82              0.0000000000
      9381        82  SAPE      H7X           -39.1043452005      -20.8698604454       12.8318197625  MEMB      82              0.0000000000
      9382        82  SAPE      H7Y           -38.3728622646      -22.4643253988       13.2540950079  MEMB      82              0.0000000000
      9383        82  SAPE      C38           -36.8816184834      -20.9464668706       12.8409128682  MEMB      82              0.0000000000
      9384        82  SAPE      H8X           -36.0800693496      -21.5861746323       13.2463972530  MEMB      82              0.0000000000
      9385        82  SAPE      H8Y           -36.7179737694      -19.8817997776       13.1384086713  MEMB      82              0.0000000000
      9386        82  SAPE      C39           -36.8278374549      -21.0695507824       11.3287010868  MEMB      82              0.0000000000
      9387        82  SAPE      H9X           -37.7630605417      -20.5210790391       11.2666630002  MEMB      82              0.0000000000
      9388        82  SAPE      H9Y           -36.8482700169      -22.1332624359       10.9949957116  MEMB      82              0.0000000000
      9389        82  SAPE      C310          -35.8392531633      -20.1734491192       10.5624835868  MEMB      82              0.0000000000
      9390        82  SAPE      H10X          -34.8617311526      -20.3998682929       11.0003234016  MEMB      82              0.0000000000
      9391        82  SAPE      H10Y          -36.1395646981      -19.1212007176       10.7776462571  MEMB      82              0.0000000000
      9392        82  SAPE      C311          -35.6569840406      -20.3078335845        9.0166800198  MEMB      82              0.0000000000
      9393        82  SAPE      H11X          -35.5238530341      -21.3706241663        8.7001006539  MEMB      82              0.0000000000
      9394        82  SAPE      H11Y          -34.8410097468      -19.6931468795        8.6235864474  MEMB      82              0.0000000000
      9395        82  SAPE      C312          -36.7279732324      -19.6687451409        8.1788383466  MEMB      82              0.0000000000
      9396        82  SAPE      H12X          -37.1805763074      -18.6705358714        8.2173527174  MEMB      82              0.0000000000
      9397        82  SAPE      H12Y          -37.3277004398      -19.9586153113        9.0631333956  MEMB      82              0.0000000000
      9398        82  SAPE      C313          -36.7887818066      -20.2877162480        6.7171667121  MEMB      82              0.0000000000
      9399        82  SAPE      H13X          -37.1280606673      -21.3620404340        6.6639070327  MEMB      82              0.0000000000
      9400        82  SAPE      H13Y          -35.7871600211      -20.2894948956        6.3071377889  MEMB      82              0.0000000000
      9401        82  SAPE      C314          -37.4693002298      -19.4277280310        5.6269991218  MEMB      82              0.0000000000
      9402        82  SAPE      H14X          -37.6881886348      -18.3887471992        5.9049378374  MEMB      82              0.0000000000
      9403        82  SAPE      H14Y          -38.4183049987      -19.7089336342        5.7323633122  MEMB      82              0.0000000000
      9404        82  SAPE      C315          -37.8610771771      -19.9822823652        4.2398173575  MEMB      82              0.0000000000
      9405        82  SAPE      H15X          -38.8546388641      -19.6181115552        3.8974388112  MEMB      82              0.0000000000
      9406        82  SAPE      H15Y          -37.9331824820      -21.0811991758        4.2005564693  MEMB      82              0.0000000000
      9407        82  SAPE      C316          -37.0159157543      -19.2441893175        3.3262001933  MEMB      82              0.0000000000
      9408        82  SAPE      H16X          -36.0054820711      -19.3669252989        3.7087765740  MEMB      82              0.0000000000
      9409        82  SAPE      H16Y          -37.4599046210      -18.2348678904        3.4960452917  MEMB      82              0.0000000000
      9410        82  SAPE      C317          -37.0770314811      -19.5713185278        1.8716524652  MEMB      82              0.0000000000
      9411        82  SAPE      H17X          -36.8152782228      -18.9446908479        1.0788996793  MEMB      82              0.0000000000
      9412        82  SAPE      H17Y          -37.8162488214      -18.7749631289        1.7080182010  MEMB      82              0.0000000000
      9413        82  SAPE      C318          -37.3620580031      -21.0294389871        1.4396075434  MEMB      82              0.0000000000
      9414        82  SAPE      H18X          -38.2132726760      -21.5148512344        1.9321740401  MEMB      82              0.0000000000
      9415        82  SAPE      H18Y          -36.5867313787      -21.7026893446        1.8093277525  MEMB      82              0.0000000000
      9416        82  SAPE      H18Z          -37.5952960118      -21.1051723256        0.3413494539  MEMB      82              0.0000000000
      9417        83  SLPC      N             -18.4734604778       37.3248023702       16.6631188206  MEMB      83              0.0000000000
      9418        83  SLPC      C13           -17.9346744923       37.1043555438       15.3054249553  MEMB      83              0.0000000000
      9419        83  SLPC      H13A          -17.7552537155       36.0342912798       15.2092084161  MEMB      83              0.0000000000
      9420        83  SLPC      H13B          -18.5966774396       37.3914646675       14.4960289579  MEMB      83              0.0000000000
      9421        83  SLPC      H13C          -17.0116454489       37.6660168281       15.2143320844  MEMB      83              0.0000000000
      9422        83  SLPC      C14           -19.7973959351       36.6691521908       16.8072585701  MEMB      83              0.0000000000
      9423        83  SLPC      H14A          -19.9895106315       36.5154837960       17.8614586596  MEMB      83              0.0000000000
      9424        83  SLPC      H14B          -20.6141522837       37.2694518617       16.4250705375  MEMB      83              0.0000000000
      9425        83  SLPC      H14C          -19.7619679124       35.6978610972       16.3257321957  MEMB      83              0.0000000000
      9426        83  SLPC      C15           -18.6726881881       38.7043011923       16.9244451824  MEMB      83              0.0000000000
      9427        83  SLPC      H15A          -19.3819291430       39.1208534493       16.1903127512  MEMB      83              0.0000000000
      9428        83  SLPC      H15B          -19.1068270535       38.9422525126       17.8880457463  MEMB      83              0.0000000000
      9429        83  SLPC      H15C          -17.7968535052       39.3371631905       16.7624352648  MEMB      83              0.0000000000
      9430        83  SLPC      C12           -17.4475659995       36.8458107016       17.6606030344  MEMB      83              0.0000000000
      9431        83  SLPC      H12A          -17.8585589960       36.9910364055       18.6541755306  MEMB      83              0.0000000000
      9432        83  SLPC      H12B          -16.5840801718       37.4808993741       17.5469938362  MEMB      83              0.0000000000
      9433        83  SLPC      C11           -16.9441661922       35.4070322073       17.5236002505  MEMB      83              0.0000000000
      9434        83  SLPC      H11A          -16.1420204371       35.2369910624       18.2781966664  MEMB      83              0.0000000000
      9435        83  SLPC      H11B          -16.4871195735       35.2404814187       16.5155933970  MEMB      83              0.0000000000
      9436        83  SLPC      P             -17.8537211499       33.0244419695       17.3265928761  MEMB      83              0.0000000000
      9437        83  SLPC      O13           -16.5368048734       32.5473619813       17.8108930867  MEMB      83              0.0000000000
      9438        83  SLPC      O14           -19.0568118788       32.2515495837       17.7011262119  MEMB      83              0.0000000000
      9439        83  SLPC      O12           -18.0296743294       34.5298103146       17.7732341935  MEMB      83              0.0000000000
      9440        83  SLPC      O11           -17.7824794462       33.1705257464       15.7564502338  MEMB      83              0.0000000000
      9441        83  SLPC      C1            -18.9776647440       33.0761689500       14.9954799505  MEMB      83              0.0000000000
      9442        83  SLPC      HA            -19.4526056304       32.0778698922       15.1358719447  MEMB      83              0.0000000000
      9443        83  SLPC      HB            -19.6982173232       33.8614136011       15.3294071097  MEMB      83              0.0000000000
      9444        83  SLPC      C2            -18.6222385706       33.2893444126       13.5065133387  MEMB      83              0.0000000000
      9445        83  SLPC      HS            -18.1711278637       32.3592692339       13.1047256839  MEMB      83              0.0000000000
      9446        83  SLPC      O21           -17.6850524004       34.3983742971       13.4527466922  MEMB      83              0.0000000000
      9447        83  SLPC      C21           -17.0948840353       34.6752630281       12.3259822395  MEMB      83              0.0000000000
      9448        83  SLPC      O22           -17.2893861754       34.1318963969       11.2531135687  MEMB      83              0.0000000000
      9449        83  SLPC      C22           -16.0990532565       35.8154554835       12.5930168122  MEMB      83              0.0000000000
      9450        83  SLPC      H2R           -16.7145132918       36.7197237368       12.7610321566  MEMB      83              0.0000000000
      9451        83  SLPC      H2S           -15.4992668030       35.6126649546       13.5009210766  MEMB      83              0.0000000000
      9452        83  SLPC      C3            -19.8650402887       33.5719653171       12.6995491897  MEMB      83              0.0000000000
      9453        83  SLPC      HX            -20.7253223433       32.9317720013       13.0675754203  MEMB      83              0.0000000000
      9454        83  SLPC      HY            -19.7254090600       33.2551392959       11.6283984514  MEMB      83              0.0000000000
      9455        83  SLPC      O31           -20.0111826304       35.0238768757       12.9174147124  MEMB      83              0.0000000000
      9456        83  SLPC      C31           -20.9549315116       35.3865241948       12.1637536630  MEMB      83              0.0000000000
      9457        83  SLPC      O32           -21.4530724447       34.6038892069       11.3976001323  MEMB      83              0.0000000000
      9458        83  SLPC      C32           -21.4419421687       36.8397337801       12.4384382807  MEMB      83              0.0000000000
      9459        83  SLPC      H2X           -20.7198482169       37.4380523231       12.9192360569  MEMB      83              0.0000000000
      9460        83  SLPC      H2Y           -22.3948205963       36.9490167504       12.9725560994  MEMB      83              0.0000000000
      9461        83  SLPC      C23           -15.2154965245       36.1258041904       11.3776639001  MEMB      83              0.0000000000
      9462        83  SLPC      H3R           -14.5279152988       36.9777313402       11.6024239825  MEMB      83              0.0000000000
      9463        83  SLPC      H3S           -15.9319164279       36.4466713635       10.5891965968  MEMB      83              0.0000000000
      9464        83  SLPC      C24           -14.3994103929       34.9310945246       10.8715033747  MEMB      83              0.0000000000
      9465        83  SLPC      H4R           -15.0380942614       34.0716355196       10.5778129956  MEMB      83              0.0000000000
      9466        83  SLPC      H4S           -13.6338720949       34.6305964796       11.6131066423  MEMB      83              0.0000000000
      9467        83  SLPC      C25           -13.7487959898       35.2146861733        9.5525135946  MEMB      83              0.0000000000
      9468        83  SLPC      H5R           -13.2548305201       34.3257172044        9.1091966244  MEMB      83              0.0000000000
      9469        83  SLPC      H5S           -12.9171066711       35.8870424670        9.8309266723  MEMB      83              0.0000000000
      9470        83  SLPC      C26           -14.8221637271       35.7816187320        8.5883948678  MEMB      83              0.0000000000
      9471        83  SLPC      H6R           -15.0698174341       36.8512653665        8.8687053828  MEMB      83              0.0000000000
      9472        83  SLPC      H6S           -15.6828185077       35.1518847115        8.3420657588  MEMB      83              0.0000000000
      9473        83  SLPC      C27           -14.3806018024       35.7402527658        7.1751785408  MEMB      83              0.0000000000
      9474        83  SLPC      H7R           -13.5795510121       34.9700157868        6.9914939634  MEMB      83              0.0000000000
      9475        83  SLPC      H7S           -13.7717961972       36.4106044285        7.6854469012  MEMB      83              0.0000000000
      9476        83  SLPC      C28           -14.7889076244       36.8566711677        6.1336771577  MEMB      83              0.0000000000
      9477        83  SLPC      H8R           -14.1626629876       37.3214905026        5.3355617562  MEMB      83              0.0000000000
      9478        83  SLPC      H8S           -15.0443662633       37.8185374555        6.6296379008  MEMB      83              0.0000000000
      9479        83  SLPC      C29           -15.6098908041       35.9492365937        5.3599360927  MEMB      83              0.0000000000
      9480        83  SLPC      H9R           -15.0933209312       35.0881651589        4.9022582850  MEMB      83              0.0000000000
      9481        83  SLPC      C210          -16.8994906512       36.1283907440        5.3651447889  MEMB      83              0.0000000000
      9482        83  SLPC      H10R          -17.5257508364       35.4790379821        4.7622613146  MEMB      83              0.0000000000
      9483        83  SLPC      C211          -17.5494491896       37.2419555557        6.1286137948  MEMB      83              0.0000000000
      9484        83  SLPC      H11R          -17.3187256614       37.1726468983        7.2103940759  MEMB      83              0.0000000000
      9485        83  SLPC      H11S          -18.6242002395       37.1420762496        5.9527111231  MEMB      83              0.0000000000
      9486        83  SLPC      C212          -17.2283668225       38.6221688324        5.7329491274  MEMB      83              0.0000000000
      9487        83  SLPC      H12R          -17.0161420199       39.3623095112        6.4890328674  MEMB      83              0.0000000000
      9488        83  SLPC      C213          -17.2500485230       39.0694228074        4.5328789406  MEMB      83              0.0000000000
      9489        83  SLPC      H13R          -16.9965499868       40.0762145557        4.5123115625  MEMB      83              0.0000000000
      9490        83  SLPC      C214          -17.5840506622       38.3913084706        3.2720706980  MEMB      83              0.0000000000
      9491        83  SLPC      H14R          -17.6899771902       37.3028884523        3.2795666542  MEMB      83              0.0000000000
      9492        83  SLPC      H14S          -16.7814556671       38.6061076580        2.5440360264  MEMB      83              0.0000000000
      9493        83  SLPC      C215          -18.9892301298       38.7204262984        2.8328804453  MEMB      83              0.0000000000
      9494        83  SLPC      H15R          -18.7187467064       39.6979345656        2.5560261717  MEMB      83              0.0000000000
      9495        83  SLPC      H15S          -19.7552257012       39.2155004472        3.4410894731  MEMB      83              0.0000000000
      9496        83  SLPC      C216          -19.2046715593       37.8541709973        1.5738456849  MEMB      83              0.0000000000
      9497        83  SLPC      H16R          -18.2191943778       37.8809067640        1.0797127095  MEMB      83              0.0000000000
      9498        83  SLPC      H16S          -19.9193826167       38.1091854801        0.7565180782  MEMB      83              0.0000000000
      9499        83  SLPC      C217          -20.2040887751       36.8562582372        1.4113776940  MEMB      83              0.0000000000
      9500        83  SLPC      H17R          -19.6390300199       36.3798751670        2.2141903091  MEMB      83              0.0000000000
      9501        83  SLPC      H17S          -20.0922067138       36.4354814746        0.3413339543  MEMB      83              0.0000000000
      9502        83  SLPC      C218          -21.5386599310       37.5219667935        1.7862506003  MEMB      83              0.0000000000
      9503        83  SLPC      H18R          -22.1118820749       38.1049767630        1.0325132009  MEMB      83              0.0000000000
      9504        83  SLPC      H18S          -21.4356639787       38.2074241885        2.6750245194  MEMB      83              0.0000000000
      9505        83  SLPC      H18T          -22.0958572465       36.6246255481        2.0146761034  MEMB      83              0.0000000000
      9506        83  SLPC      C33           -21.9785640190       37.4403592481       11.2521356473  MEMB      83              0.0000000000
      9507        83  SLPC      H3X           -22.0462357512       38.1220646358       10.4642244910  MEMB      83              0.0000000000
      9508        83  SLPC      H3Y           -23.0986081581       37.2686288789       11.3201753361  MEMB      83              0.0000000000
      9509        83  SLPC      C34           -20.6738250520       37.1859514614       10.3169931488  MEMB      83              0.0000000000
      9510        83  SLPC      H4X           -20.2141639745       36.1828011015       10.2737338517  MEMB      83              0.0000000000
      9511        83  SLPC      H4Y           -19.9974504973       37.9217223003       10.7683999560  MEMB      83              0.0000000000
      9512        83  SLPC      C35           -20.5823659391       37.4257479605        8.8114594337  MEMB      83              0.0000000000
      9513        83  SLPC      H5X           -19.6191334790       37.7238911673        8.3482986670  MEMB      83              0.0000000000
      9514        83  SLPC      H5Y           -21.0358222452       38.4383291794        8.6271714345  MEMB      83              0.0000000000
      9515        83  SLPC      C36           -21.0826539490       36.3092984618        7.8712487785  MEMB      83              0.0000000000
      9516        83  SLPC      H6X           -21.2973705690       37.2185461069        7.3559421584  MEMB      83              0.0000000000
      9517        83  SLPC      H6Y           -22.0184262526       35.6880713732        7.7007103783  MEMB      83              0.0000000000
      9518        83  SLPC      C37           -20.7189814349       34.9407378163        7.5802539073  MEMB      83              0.0000000000
      9519        83  SLPC      H7X           -21.1056333220       34.3558584091        8.4675635502  MEMB      83              0.0000000000
      9520        83  SLPC      H7Y           -19.6728358875       35.1671709504        7.5577245388  MEMB      83              0.0000000000
      9521        83  SLPC      C38           -21.2920917381       34.2961719138        6.2913831660  MEMB      83              0.0000000000
      9522        83  SLPC      H8X           -20.8807814040       34.8641896122        5.4396729245  MEMB      83              0.0000000000
      9523        83  SLPC      H8Y           -22.4126082792       34.2320991903        6.1774816803  MEMB      83              0.0000000000
      9524        83  SLPC      C39           -20.6362484228       32.9626589549        6.2433456836  MEMB      83              0.0000000000
      9525        83  SLPC      H9X           -21.0583595715       32.3666073416        7.0810283384  MEMB      83              0.0000000000
      9526        83  SLPC      H9Y           -19.5562735157       33.1821593912        6.4307077988  MEMB      83              0.0000000000
      9527        83  SLPC      C310          -20.7555563385       32.2338411735        4.9226930206  MEMB      83              0.0000000000
      9528        83  SLPC      H10X          -21.8197859849       32.0421866417        4.6745002235  MEMB      83              0.0000000000
      9529        83  SLPC      H10Y          -20.2589953657       31.2562672288        5.1111620487  MEMB      83              0.0000000000
      9530        83  SLPC      C311          -20.0673486144       32.9231000517        3.7399442398  MEMB      83              0.0000000000
      9531        83  SLPC      H11X          -20.2737928701       34.0104804251        3.6545268753  MEMB      83              0.0000000000
      9532        83  SLPC      H11Y          -20.4728012641       32.4815221714        2.8041913799  MEMB      83              0.0000000000
      9533        83  SLPC      C312          -18.5591094429       32.6945957886        3.7314349571  MEMB      83              0.0000000000
      9534        83  SLPC      H12X          -18.3899370467       31.5949257445        3.6225972501  MEMB      83              0.0000000000
      9535        83  SLPC      H12Y          -18.0836028267       33.0277264298        4.6814629387  MEMB      83              0.0000000000
      9536        83  SLPC      C313          -17.9339949790       33.4868666128        2.5803531526  MEMB      83              0.0000000000
      9537        83  SLPC      H13X          -18.1761783711       34.5678119047        2.6924551794  MEMB      83              0.0000000000
      9538        83  SLPC      H13Y          -18.3800312648       33.1034335353        1.6359385302  MEMB      83              0.0000000000
      9539        83  SLPC      C314          -16.4227163009       33.3035489315        2.5263837020  MEMB      83              0.0000000000
      9540        83  SLPC      H14X          -16.2791807026       32.2329329522        2.2507473685  MEMB      83              0.0000000000
      9541        83  SLPC      H14Y          -15.9920031662       33.4858299524        3.5329643176  MEMB      83              0.0000000000
      9542        83  SLPC      C315          -15.6468159790       34.1472415755        1.5055524885  MEMB      83              0.0000000000
      9543        83  SLPC      H15X          -14.5831272290       33.8521392912        1.6574412012  MEMB      83              0.0000000000
      9544        83  SLPC      H15Y          -15.7285045523       35.2445652766        1.6832538195  MEMB      83              0.0000000000
      9545        83  SLPC      C316          -16.0467334985       33.7734491851        0.0752318875  MEMB      83              0.0000000000
      9546        83  SLPC      H16X          -17.0126092690       34.2800745544       -0.1571422851  MEMB      83              0.0000000000
      9547        83  SLPC      H16Y          -16.1762785093       32.6743999458        0.0530229692  MEMB      83              0.0000000000
      9548        83  SLPC      C317          -15.0266470909       34.1410916635       -1.0006643130  MEMB      83              0.0000000000
      9549        83  SLPC      H17X          -13.9852746794       33.9509121515       -0.6672282381  MEMB      83              0.0000000000
      9550        83  SLPC      H17Y          -15.1570088077       35.2301912458       -0.9990529951  MEMB      83              0.0000000000
      9551        83  SLPC      C318          -15.2312854738       33.5033448340       -2.3972570558  MEMB      83              0.0000000000
      9552        83  SLPC      H18X          -15.1902356123       32.3984779376       -2.3183941850  MEMB      83              0.0000000000
      9553        83  SLPC      H18Y          -14.4549001384       33.8579421559       -3.1115641167  MEMB      83              0.0000000000
      9554        83  SLPC      H18Z          -16.2085830430       33.7309352100       -2.8693056210  MEMB      83              0.0000000000
      9555        84  SAPC      N              21.0990379287       33.2752119969       22.0981706604  MEMB      84              0.0000000000
      9556        84  SAPC      C12            20.3330614998       33.3485512655       20.7887478609  MEMB      84              0.0000000000
      9557        84  SAPC      H12A           20.4195834298       34.3464782382       20.3783111300  MEMB      84              0.0000000000
      9558        84  SAPC      H12B           19.3079415125       33.1284993905       21.0145173938  MEMB      84              0.0000000000
      9559        84  SAPC      C13            22.4791201041       33.7835617899       21.9102156041  MEMB      84              0.0000000000
      9560        84  SAPC      H13A           22.4825123378       34.7752837761       21.4806033053  MEMB      84              0.0000000000
      9561        84  SAPC      H13B           23.0353098150       33.7310968898       22.8318622640  MEMB      84              0.0000000000
      9562        84  SAPC      H13C           22.9684100501       33.1718029865       21.1454123190  MEMB      84              0.0000000000
      9563        84  SAPC      C14            20.5247776200       34.0548130119       23.2129418698  MEMB      84              0.0000000000
      9564        84  SAPC      H14A           21.0788800935       33.8372929173       24.1213649847  MEMB      84              0.0000000000
      9565        84  SAPC      H14B           20.5861277257       35.1129956245       23.0087635441  MEMB      84              0.0000000000
      9566        84  SAPC      H14C           19.4949675293       33.7853584065       23.4279015886  MEMB      84              0.0000000000
      9567        84  SAPC      C15            21.2085552613       31.8481097430       22.5107454821  MEMB      84              0.0000000000
      9568        84  SAPC      H15A           20.2507804377       31.3447762193       22.3730419142  MEMB      84              0.0000000000
      9569        84  SAPC      H15B           21.9307640976       31.3544712784       21.8574122155  MEMB      84              0.0000000000
      9570        84  SAPC      H15C           21.5164029365       31.7516846218       23.5396679616  MEMB      84              0.0000000000
      9571        84  SAPC      C11            20.6586289782       32.3003944123       19.6829879576  MEMB      84              0.0000000000
      9572        84  SAPC      H11A           19.8882280398       32.3209751423       18.8716687917  MEMB      84              0.0000000000
      9573        84  SAPC      H11B           20.5713382789       31.2938970428       20.1335431087  MEMB      84              0.0000000000
      9574        84  SAPC      P              22.1710034731       33.3708206217       17.9052139340  MEMB      84              0.0000000000
      9575        84  SAPC      O13            21.7010707363       32.7564886812       16.6484496703  MEMB      84              0.0000000000
      9576        84  SAPC      O14            21.5926892913       34.6836746407       18.3153772869  MEMB      84              0.0000000000
      9577        84  SAPC      O12            21.9692836063       32.4208932753       19.1627561374  MEMB      84              0.0000000000
      9578        84  SAPC      O11            23.7148612804       33.5233265642       17.8525488147  MEMB      84              0.0000000000
      9579        84  SAPC      C1             24.3784767400       33.5461911093       19.1275737362  MEMB      84              0.0000000000
      9580        84  SAPC      HA             23.8524668569       34.1905706338       19.8452726004  MEMB      84              0.0000000000
      9581        84  SAPC      HB             24.4828915397       32.5519648680       19.6226662290  MEMB      84              0.0000000000
      9582        84  SAPC      C2             25.7634386616       34.1289071682       18.9300125140  MEMB      84              0.0000000000
      9583        84  SAPC      HS             26.0380968033       34.4965872374       19.9105707423  MEMB      84              0.0000000000
      9584        84  SAPC      O21            25.7839697941       35.0583304416       17.8876362571  MEMB      84              0.0000000000
      9585        84  SAPC      C21            24.8279132072       35.9495818333       17.9633320234  MEMB      84              0.0000000000
      9586        84  SAPC      O22            24.4710434458       36.5289435572       18.9778399323  MEMB      84              0.0000000000
      9587        84  SAPC      C22            24.5498263602       36.4024679317       16.5312229123  MEMB      84              0.0000000000
      9588        84  SAPC      H2R            25.5572453958       36.4786902010       16.3872197243  MEMB      84              0.0000000000
      9589        84  SAPC      H2S            24.7518968228       35.7486338135       15.6790097500  MEMB      84              0.0000000000
      9590        84  SAPC      C3             26.8722657970       33.2398526828       18.5726304990  MEMB      84              0.0000000000
      9591        84  SAPC      HX             27.2360613232       32.7836891789       19.4956154455  MEMB      84              0.0000000000
      9592        84  SAPC      HY             27.8452641894       33.7431437456       18.4031760875  MEMB      84              0.0000000000
      9593        84  SAPC      O31            26.4872869755       32.4814038708       17.4233663202  MEMB      84              0.0000000000
      9594        84  SAPC      C31            25.5584250743       31.5543851358       17.3158895633  MEMB      84              0.0000000000
      9595        84  SAPC      O32            24.7038577148       31.1429148346       18.0609813170  MEMB      84              0.0000000000
      9596        84  SAPC      C32            25.7980631208       30.8142163040       16.0936323827  MEMB      84              0.0000000000
      9597        84  SAPC      H2X            26.1711896482       29.7548996376       16.1519119373  MEMB      84              0.0000000000
      9598        84  SAPC      H2Y            26.4834021827       31.4327489953       15.5463385323  MEMB      84              0.0000000000
      9599        84  SAPC      C23            24.0118162049       37.8594970837       16.4274609342  MEMB      84              0.0000000000
      9600        84  SAPC      H3R            24.5278925751       38.6622340765       17.0188682718  MEMB      84              0.0000000000
      9601        84  SAPC      H3S            23.0275385084       37.6672990815       16.8779606983  MEMB      84              0.0000000000
      9602        84  SAPC      C24            23.6247408588       38.4346754952       15.0744454690  MEMB      84              0.0000000000
      9603        84  SAPC      H4R            23.0968646223       39.3886207847       15.2595255448  MEMB      84              0.0000000000
      9604        84  SAPC      H4S            23.0357184536       37.6749438921       14.5365735037  MEMB      84              0.0000000000
      9605        84  SAPC      C25            24.6099214722       38.8960491490       14.1423795703  MEMB      84              0.0000000000
      9606        84  SAPC      H5R            25.3728515845       39.6025757512       14.5556508547  MEMB      84              0.0000000000
      9607        84  SAPC      C26            24.7896850263       38.3160777880       12.9755028351  MEMB      84              0.0000000000
      9608        84  SAPC      H6R            25.1990235865       38.9370093440       12.2818836677  MEMB      84              0.0000000000
      9609        84  SAPC      C27            24.4291397995       37.2911664007       12.0080368836  MEMB      84              0.0000000000
      9610        84  SAPC      H7R            24.6778611750       37.6972339810       10.9921374520  MEMB      84              0.0000000000
      9611        84  SAPC      H7S            23.3647761929       37.4079228140       12.0081252799  MEMB      84              0.0000000000
      9612        84  SAPC      C28            25.0230172258       35.9175203134       12.1372885850  MEMB      84              0.0000000000
      9613        84  SAPC      H8R            25.2389665983       35.5805913855       13.1662803703  MEMB      84              0.0000000000
      9614        84  SAPC      C29            25.3034618745       35.1076872158       11.0966985773  MEMB      84              0.0000000000
      9615        84  SAPC      H9R            25.5787169028       34.0791816365       11.3266200702  MEMB      84              0.0000000000
      9616        84  SAPC      C210           25.1106860817       35.3339751278        9.6147598246  MEMB      84              0.0000000000
      9617        84  SAPC      H10R           24.4004443999       36.1427387791        9.3374571340  MEMB      84              0.0000000000
      9618        84  SAPC      H10S           24.8649575135       34.4340783599        9.0657427559  MEMB      84              0.0000000000
      9619        84  SAPC      C211           26.3708325429       35.6449635828        9.0185342987  MEMB      84              0.0000000000
      9620        84  SAPC      H11R           26.9784653874       36.2168035700        9.6822315772  MEMB      84              0.0000000000
      9621        84  SAPC      C212           26.7382126561       35.5458064934        7.7621345229  MEMB      84              0.0000000000
      9622        84  SAPC      H12R           27.6497594675       36.0514691590        7.3673971796  MEMB      84              0.0000000000
      9623        84  SAPC      C213           25.8390910342       35.0465751705        6.7629012809  MEMB      84              0.0000000000
      9624        84  SAPC      H13R           25.2050454666       34.2206111549        7.0545099319  MEMB      84              0.0000000000
      9625        84  SAPC      H13S           26.4768105649       34.2481097427        6.4523683683  MEMB      84              0.0000000000
      9626        84  SAPC      C214           25.3341552555       35.9450368917        5.6586334425  MEMB      84              0.0000000000
      9627        84  SAPC      H14R           24.2342998669       36.0020973929        5.6915188815  MEMB      84              0.0000000000
      9628        84  SAPC      C215           25.9743787755       36.4731722678        4.5545532607  MEMB      84              0.0000000000
      9629        84  SAPC      H15R           25.1882133361       36.8074117263        3.8965993957  MEMB      84              0.0000000000
      9630        84  SAPC      C216           27.4792448960       36.5078822370        3.7884383238  MEMB      84              0.0000000000
      9631        84  SAPC      H16R           28.1287962605       36.7874543994        4.6213394936  MEMB      84              0.0000000000
      9632        84  SAPC      H16S           28.3013720945       37.2120805591        3.7743773830  MEMB      84              0.0000000000
      9633        84  SAPC      C217           28.4185489939       35.7587170374        2.7046542647  MEMB      84              0.0000000000
      9634        84  SAPC      H17R           28.6955223774       34.7185769155        2.8468530384  MEMB      84              0.0000000000
      9635        84  SAPC      H17S           29.4915602659       36.0504578554        2.8058759144  MEMB      84              0.0000000000
      9636        84  SAPC      C218           27.7504814386       35.4826940326        1.5081954700  MEMB      84              0.0000000000
      9637        84  SAPC      H18R           28.2335937488       36.4380643816        1.4054351590  MEMB      84              0.0000000000
      9638        84  SAPC      H18S           26.6453384165       35.4013300341        1.6257913701  MEMB      84              0.0000000000
      9639        84  SAPC      C219           28.4062416339       34.5655451738        0.6158774369  MEMB      84              0.0000000000
      9640        84  SAPC      H19R           28.2502698111       33.5065233852        0.7918059339  MEMB      84              0.0000000000
      9641        84  SAPC      H19S           29.4889103846       34.7539906437        0.7264044179  MEMB      84              0.0000000000
      9642        84  SAPC      C220           27.7750903223       34.7886268378       -0.6861698899  MEMB      84              0.0000000000
      9643        84  SAPC      H20R           27.4880514484       35.8568969958       -0.7556767209  MEMB      84              0.0000000000
      9644        84  SAPC      H20S           26.8623356668       34.1537410368       -0.7632427171  MEMB      84              0.0000000000
      9645        84  SAPC      H20T           28.5730558216       34.4629513598       -1.3698832864  MEMB      84              0.0000000000
      9646        84  SAPC      C33            24.3985655973       30.9239404231       15.7654389748  MEMB      84              0.0000000000
      9647        84  SAPC      H3X            24.1028086545       31.9757886690       15.5343467181  MEMB      84              0.0000000000
      9648        84  SAPC      H3Y            23.6706487172       30.3001526412       16.3598417458  MEMB      84              0.0000000000
      9649        84  SAPC      C34            24.2536351064       30.3123818873       14.5811392719  MEMB      84              0.0000000000
      9650        84  SAPC      H4X            24.6915268997       29.2702138653       14.6980645774  MEMB      84              0.0000000000
      9651        84  SAPC      H4Y            25.0234108365       30.4801386137       13.9131696409  MEMB      84              0.0000000000
      9652        84  SAPC      C35            22.8283050084       30.7340995937       14.0679298597  MEMB      84              0.0000000000
      9653        84  SAPC      H5X            22.0569664323       30.3018263007       14.7102942024  MEMB      84              0.0000000000
      9654        84  SAPC      H5Y            22.5786850346       30.3954700013       13.0554688609  MEMB      84              0.0000000000
      9655        84  SAPC      C36            22.4384125191       31.8117870655       13.1001000076  MEMB      84              0.0000000000
      9656        84  SAPC      H6X            23.1516652687       31.9657077853       12.2439608697  MEMB      84              0.0000000000
      9657        84  SAPC      H6Y            22.5492168219       32.5513155096       13.8774236523  MEMB      84              0.0000000000
      9658        84  SAPC      C37            20.9739724382       31.6362689589       12.5718845795  MEMB      84              0.0000000000
      9659        84  SAPC      H7X            20.3159613210       31.2843385144       13.4016726447  MEMB      84              0.0000000000
      9660        84  SAPC      H7Y            20.8036808603       30.8497556874       11.7875099547  MEMB      84              0.0000000000
      9661        84  SAPC      C38            20.6093229245       33.0232276741       12.0750280813  MEMB      84              0.0000000000
      9662        84  SAPC      H8X            21.1374418033       33.7777265787       12.7110195430  MEMB      84              0.0000000000
      9663        84  SAPC      H8Y            19.5207267942       33.1688895187       12.1972647056  MEMB      84              0.0000000000
      9664        84  SAPC      C39            21.1089679320       33.2628721932       10.6492542284  MEMB      84              0.0000000000
      9665        84  SAPC      H9X            22.1543598623       32.8888561320       10.5736321607  MEMB      84              0.0000000000
      9666        84  SAPC      H9Y            21.1375398915       34.3546059664       10.4305391168  MEMB      84              0.0000000000
      9667        84  SAPC      C310           20.2151191772       32.5765083940        9.6221470180  MEMB      84              0.0000000000
      9668        84  SAPC      H10X           19.1635800399       32.8627819834        9.8608456451  MEMB      84              0.0000000000
      9669        84  SAPC      H10Y           20.3043564631       31.4703782507        9.7020731616  MEMB      84              0.0000000000
      9670        84  SAPC      C311           20.5393368579       32.9787942751        8.1822944691  MEMB      84              0.0000000000
      9671        84  SAPC      H11X           21.6177776551       33.2294898247        8.0769299149  MEMB      84              0.0000000000
      9672        84  SAPC      H11Y           19.9351957551       33.8802979074        7.9390340027  MEMB      84              0.0000000000
      9673        84  SAPC      C312           20.2287737206       31.8564225080        7.1884665976  MEMB      84              0.0000000000
      9674        84  SAPC      H12X           19.2445592936       31.4169051423        7.4845186606  MEMB      84              0.0000000000
      9675        84  SAPC      H12Y           21.0012900271       31.0693226035        7.2983470150  MEMB      84              0.0000000000
      9676        84  SAPC      C313           20.1362339472       32.3470554555        5.7330507779  MEMB      84              0.0000000000
      9677        84  SAPC      H13X           19.8173703457       33.4146949840        5.7521982091  MEMB      84              0.0000000000
      9678        84  SAPC      H13Y           19.3600463355       31.7505783837        5.2080434981  MEMB      84              0.0000000000
      9679        84  SAPC      C314           21.3785848396       32.1751646990        4.8454679179  MEMB      84              0.0000000000
      9680        84  SAPC      H14X           21.6449715448       31.0953127807        4.7863621379  MEMB      84              0.0000000000
      9681        84  SAPC      H14Y           22.2193551994       32.7093646010        5.3397007610  MEMB      84              0.0000000000
      9682        84  SAPC      C315           21.1222542071       32.7407843613        3.4232414580  MEMB      84              0.0000000000
      9683        84  SAPC      H15X           20.9789755181       33.8377132352        3.5155090443  MEMB      84              0.0000000000
      9684        84  SAPC      H15Y           20.2783064131       32.2650389469        2.8782406551  MEMB      84              0.0000000000
      9685        84  SAPC      C316           22.2233267781       32.5799789392        2.4131848520  MEMB      84              0.0000000000
      9686        84  SAPC      H16X           22.0758364218       33.1089941674        1.4515836450  MEMB      84              0.0000000000
      9687        84  SAPC      H16Y           22.3351010349       31.4942596319        2.2173809821  MEMB      84              0.0000000000
      9688        84  SAPC      C317           23.4086161313       33.4049561574        2.8137654450  MEMB      84              0.0000000000
      9689        84  SAPC      H17X           23.7033662300       32.9206354393        3.7918952562  MEMB      84              0.0000000000
      9690        84  SAPC      H17Y           23.1659904973       34.3944580687        3.0795696961  MEMB      84              0.0000000000
      9691        84  SAPC      C318           24.4001590973       33.6826627269        1.6147112717  MEMB      84              0.0000000000
      9692        84  SAPC      H18X           25.5079488576       33.8059286098        1.6522465701  MEMB      84              0.0000000000
      9693        84  SAPC      H18Y           24.0852522828       34.1008095195        0.6945839376  MEMB      84              0.0000000000
      9694        84  SAPC      H18Z           24.3371628069       32.6697576917        1.7520668514  MEMB      84              0.0000000000
      9695        85  SAPE      N              26.9746679809      -29.1570033574       19.3880344409  MEMB      85              0.0000000000
      9696        85  SAPE      HN1            27.0513994752      -28.9007646948       20.3875681872  MEMB      85              0.0000000000
      9697        85  SAPE      HN2            26.1538169220      -28.6784120087       18.9586018021  MEMB      85              0.0000000000
      9698        85  SAPE      HN3            26.9108611806      -30.1932784342       19.2457192984  MEMB      85              0.0000000000
      9699        85  SAPE      C12            28.2508987526      -28.6376849387       18.8228732191  MEMB      85              0.0000000000
      9700        85  SAPE      H12A           28.2278537631      -28.7034792452       17.7551308904  MEMB      85              0.0000000000
      9701        85  SAPE      H12B           29.0732004737      -29.2953380150       19.1657403405  MEMB      85              0.0000000000
      9702        85  SAPE      C11            28.4159732636      -27.1279064554       18.9646844365  MEMB      85              0.0000000000
      9703        85  SAPE      H11A           27.4917792902      -26.5734615317       18.7039279468  MEMB      85              0.0000000000
      9704        85  SAPE      H11B           29.1781310368      -26.8121755036       18.1911820802  MEMB      85              0.0000000000
      9705        85  SAPE      P              30.3373560169      -26.9516950931       20.6333042941  MEMB      85              0.0000000000
      9706        85  SAPE      O13            30.5316950137      -27.0959786723       22.0751412407  MEMB      85              0.0000000000
      9707        85  SAPE      O14            30.8654904694      -28.0341962961       19.7822497589  MEMB      85              0.0000000000
      9708        85  SAPE      O12            28.7658532025      -26.8347758798       20.3113018396  MEMB      85              0.0000000000
      9709        85  SAPE      O11            30.8363822863      -25.5760509023       20.1248656503  MEMB      85              0.0000000000
      9710        85  SAPE      C1             30.6285854941      -24.3837960302       20.8887540706  MEMB      85              0.0000000000
      9711        85  SAPE      HA             29.6185757497      -24.3165432632       21.3140022477  MEMB      85              0.0000000000
      9712        85  SAPE      HB             31.4205065502      -24.3204856540       21.6773075971  MEMB      85              0.0000000000
      9713        85  SAPE      C2             30.7366628268      -23.1074297285       20.0290570323  MEMB      85              0.0000000000
      9714        85  SAPE      HS             30.2900363211      -22.2495196034       20.4241991823  MEMB      85              0.0000000000
      9715        85  SAPE      O21            30.2734283581      -23.3224997602       18.6976813773  MEMB      85              0.0000000000
      9716        85  SAPE      C21            29.0865450808      -23.4568231095       18.3965489055  MEMB      85              0.0000000000
      9717        85  SAPE      O22            28.1177354424      -23.2229340132       19.1130549355  MEMB      85              0.0000000000
      9718        85  SAPE      C22            28.9957841843      -23.9139380929       16.9428705085  MEMB      85              0.0000000000
      9719        85  SAPE      H2R            29.8241042567      -23.5233878910       16.3633986921  MEMB      85              0.0000000000
      9720        85  SAPE      H2S            29.1893244322      -24.9632996073       16.7333740072  MEMB      85              0.0000000000
      9721        85  SAPE      C3             32.2086683725      -22.6985223633       20.0828162735  MEMB      85              0.0000000000
      9722        85  SAPE      HX             32.4035413152      -22.2202501754       21.0549080383  MEMB      85              0.0000000000
      9723        85  SAPE      HY             32.5281624969      -21.9122111944       19.3327436620  MEMB      85              0.0000000000
      9724        85  SAPE      O31            32.9232175108      -23.9553135405       20.0604873402  MEMB      85              0.0000000000
      9725        85  SAPE      C31            32.7035778795      -24.3707657072       18.8026931615  MEMB      85              0.0000000000
      9726        85  SAPE      O32            32.3474783735      -23.6190026195       17.9401157417  MEMB      85              0.0000000000
      9727        85  SAPE      C32            33.3135426372      -25.7077866560       18.5290736618  MEMB      85              0.0000000000
      9728        85  SAPE      H2X            32.7938329026      -26.2804858014       19.2034411411  MEMB      85              0.0000000000
      9729        85  SAPE      H2Y            34.2427055305      -25.3277141787       19.0985324649  MEMB      85              0.0000000000
      9730        85  SAPE      C23            27.6535667090      -23.4121877939       16.4389367120  MEMB      85              0.0000000000
      9731        85  SAPE      H3R            27.3293520434      -22.4287792231       16.8708821217  MEMB      85              0.0000000000
      9732        85  SAPE      H3S            26.9862945557      -24.1700736723       16.8108427842  MEMB      85              0.0000000000
      9733        85  SAPE      C24            27.5204187783      -23.3066613833       14.9455452754  MEMB      85              0.0000000000
      9734        85  SAPE      H4R            28.0352250727      -22.4020271275       14.7485765088  MEMB      85              0.0000000000
      9735        85  SAPE      H4S            26.8240185613      -22.7218200155       14.3699225408  MEMB      85              0.0000000000
      9736        85  SAPE      C25            27.8011255933      -24.5313744144       14.1889386278  MEMB      85              0.0000000000
      9737        85  SAPE      H5R            28.6804599671      -25.0988394149       14.4359031695  MEMB      85              0.0000000000
      9738        85  SAPE      C26            27.1633939019      -25.0129547804       13.1946915676  MEMB      85              0.0000000000
      9739        85  SAPE      H6R            27.5023992351      -25.9557576794       12.8008280937  MEMB      85              0.0000000000
      9740        85  SAPE      C27            25.9767090917      -24.5964511665       12.5164957329  MEMB      85              0.0000000000
      9741        85  SAPE      H7R            26.1915392191      -23.6680914065       12.1765314526  MEMB      85              0.0000000000
      9742        85  SAPE      H7S            25.0933939591      -24.8255874359       13.1728851306  MEMB      85              0.0000000000
      9743        85  SAPE      C28            25.4536644783      -24.9978130228       11.2920494165  MEMB      85              0.0000000000
      9744        85  SAPE      H8R            24.8395087073      -25.5356307737       11.5349998797  MEMB      85              0.0000000000
      9745        85  SAPE      C29            25.4398470533      -25.0648913658       10.0656650819  MEMB      85              0.0000000000
      9746        85  SAPE      H9R            25.2111259152      -25.9935478549        9.5976779625  MEMB      85              0.0000000000
      9747        85  SAPE      C210           26.5194601103      -24.5077723746        9.5586561273  MEMB      85              0.0000000000
      9748        85  SAPE      H10R           26.5948528266      -23.4499762234        9.9123424606  MEMB      85              0.0000000000
      9749        85  SAPE      H10S           26.3484417674      -24.4342217509        8.5872553958  MEMB      85              0.0000000000
      9750        85  SAPE      C211           27.4509251479      -25.6320291694        9.3793383751  MEMB      85              0.0000000000
      9751        85  SAPE      H11R           27.1980643750      -26.6779470879        9.2978932131  MEMB      85              0.0000000000
      9752        85  SAPE      C212           28.6322316989      -25.2796042018        9.4458128488  MEMB      85              0.0000000000
      9753        85  SAPE      H12R           29.3248921533      -26.0625650816        9.7090003912  MEMB      85              0.0000000000
      9754        85  SAPE      C213           28.8452265294      -23.8550665912        9.7071769506  MEMB      85              0.0000000000
      9755        85  SAPE      H13R           28.4876942657      -24.2027019758       10.7705885462  MEMB      85              0.0000000000
      9756        85  SAPE      H13S           28.2494094035      -22.9763594116        9.5685100305  MEMB      85              0.0000000000
      9757        85  SAPE      C214           30.0986963381      -23.0772406569        9.4972119701  MEMB      85              0.0000000000
      9758        85  SAPE      H14R           30.9454741975      -23.0458048359       10.2099961660  MEMB      85              0.0000000000
      9759        85  SAPE      C215           30.5898261281      -22.3584868726        8.7866176622  MEMB      85              0.0000000000
      9760        85  SAPE      H15R           31.5776500577      -22.6156631944        8.4585242729  MEMB      85              0.0000000000
      9761        85  SAPE      C216           30.1354030846      -21.9204977377        7.8014309931  MEMB      85              0.0000000000
      9762        85  SAPE      H16R           30.7161365509      -21.0890203828        8.3535627200  MEMB      85              0.0000000000
      9763        85  SAPE      H16S           29.0742796670      -22.0489292742        7.9366953055  MEMB      85              0.0000000000
      9764        85  SAPE      C217           30.8397320398      -22.4256703219        6.6795686536  MEMB      85              0.0000000000
      9765        85  SAPE      H17R           31.3862148629      -23.3657635071        6.5797641746  MEMB      85              0.0000000000
      9766        85  SAPE      H17S           31.4540115975      -21.5880774652        6.6174467115  MEMB      85              0.0000000000
      9767        85  SAPE      C218           30.0926216495      -21.8460544469        5.7046382851  MEMB      85              0.0000000000
      9768        85  SAPE      H18R           29.9561643354      -20.7722818611        6.1513122396  MEMB      85              0.0000000000
      9769        85  SAPE      H18S           29.1998763359      -22.4639642785        5.8073821349  MEMB      85              0.0000000000
      9770        85  SAPE      C219           30.5939388279      -21.8874850631        4.3371321463  MEMB      85              0.0000000000
      9771        85  SAPE      H19R           30.8881819169      -22.8774804537        4.0443706241  MEMB      85              0.0000000000
      9772        85  SAPE      H19S           31.5812837620      -21.5655119477        4.2684377191  MEMB      85              0.0000000000
      9773        85  SAPE      C220           29.8612495407      -21.0409699378        3.3515002050  MEMB      85              0.0000000000
      9774        85  SAPE      H20R           30.2976165903      -21.0346180844        2.3593491201  MEMB      85              0.0000000000
      9775        85  SAPE      H20S           29.8580105756      -19.9950014614        3.4781540660  MEMB      85              0.0000000000
      9776        85  SAPE      H20T           28.8209598699      -21.0720749755        3.4547306204  MEMB      85              0.0000000000
      9777        85  SAPE      C33            33.4568270540      -26.8186614700       17.1099463138  MEMB      85              0.0000000000
      9778        85  SAPE      H3X            34.3879659822      -27.3992488077       16.7301360689  MEMB      85              0.0000000000
      9779        85  SAPE      H3Y            34.0680146522      -26.6907744062       16.1542979707  MEMB      85              0.0000000000
      9780        85  SAPE      C34            32.3106996637      -27.3627452125       17.0825167649  MEMB      85              0.0000000000
      9781        85  SAPE      H4X            31.7273364356      -26.4927871321       17.3921607542  MEMB      85              0.0000000000
      9782        85  SAPE      H4Y            32.2534431678      -27.7698490458       18.0520900174  MEMB      85              0.0000000000
      9783        85  SAPE      C35            32.2665371787      -28.1931358871       15.8784716510  MEMB      85              0.0000000000
      9784        85  SAPE      H5X            33.1896050220      -28.6530189618       15.4930361798  MEMB      85              0.0000000000
      9785        85  SAPE      H5Y            32.0953590728      -27.7694567197       14.9367875417  MEMB      85              0.0000000000
      9786        85  SAPE      C36            30.9238631139      -28.6582128392       15.8709283199  MEMB      85              0.0000000000
      9787        85  SAPE      H6X            30.2987902806      -27.7976306190       16.2247232380  MEMB      85              0.0000000000
      9788        85  SAPE      H6Y            31.0724442706      -29.4538863262       16.6210005300  MEMB      85              0.0000000000
      9789        85  SAPE      C37            30.5640800323      -29.0623238916       14.4560638869  MEMB      85              0.0000000000
      9790        85  SAPE      H7X            29.7013845640      -29.6497662708       14.7002251204  MEMB      85              0.0000000000
      9791        85  SAPE      H7Y            31.3550245809      -29.7411464066       14.1193676749  MEMB      85              0.0000000000
      9792        85  SAPE      C38            30.2913589019      -27.9679294308       13.3804175603  MEMB      85              0.0000000000
      9793        85  SAPE      H8X            31.2145074190      -27.4837770613       13.0553524137  MEMB      85              0.0000000000
      9794        85  SAPE      H8Y            29.5446889827      -27.2643041643       13.7818432075  MEMB      85              0.0000000000
      9795        85  SAPE      C39            29.7742864853      -28.3836836323       12.0160470615  MEMB      85              0.0000000000
      9796        85  SAPE      H9X            29.5588152822      -27.6027292117       11.2754193373  MEMB      85              0.0000000000
      9797        85  SAPE      H9Y            29.0413917452      -29.1299471642       12.2990694443  MEMB      85              0.0000000000
      9798        85  SAPE      C310           30.6368625476      -29.2536559057       11.2544084356  MEMB      85              0.0000000000
      9799        85  SAPE      H10X           30.7463927629      -29.7872901325       12.1623150239  MEMB      85              0.0000000000
      9800        85  SAPE      H10Y           31.6380071350      -28.8365078855       11.1064269005  MEMB      85              0.0000000000
      9801        85  SAPE      C311           30.0555238711      -30.1723586655       10.1502972994  MEMB      85              0.0000000000
      9802        85  SAPE      H11X           29.1244390492      -30.6316806259       10.4102318561  MEMB      85              0.0000000000
      9803        85  SAPE      H11Y           30.6470339521      -31.1323762089       10.0274339426  MEMB      85              0.0000000000
      9804        85  SAPE      C312           30.1274797909      -29.2672077286        8.9252932994  MEMB      85              0.0000000000
      9805        85  SAPE      H12X           31.0340490721      -29.3232168344        8.4056639444  MEMB      85              0.0000000000
      9806        85  SAPE      H12Y           30.2863394284      -28.2234202029        9.2401281802  MEMB      85              0.0000000000
      9807        85  SAPE      C313           29.4081018713      -29.6040486265        7.6660989487  MEMB      85              0.0000000000
      9808        85  SAPE      H13X           28.3697240501      -29.4522577939        7.9221259547  MEMB      85              0.0000000000
      9809        85  SAPE      H13Y           29.6089726029      -30.6510473505        7.3452583927  MEMB      85              0.0000000000
      9810        85  SAPE      C314           29.7708995833      -28.6463533391        6.5347114114  MEMB      85              0.0000000000
      9811        85  SAPE      H14X           30.7528069711      -28.8871475410        6.0855904375  MEMB      85              0.0000000000
      9812        85  SAPE      H14Y           29.7920324448      -27.6206570930        6.9690739845  MEMB      85              0.0000000000
      9813        85  SAPE      C315           28.6973941381      -28.7504042763        5.4771205517  MEMB      85              0.0000000000
      9814        85  SAPE      H15X           27.7786815942      -28.4248444351        6.0148893000  MEMB      85              0.0000000000
      9815        85  SAPE      H15Y           28.5815310446      -29.8237585886        5.2183990199  MEMB      85              0.0000000000
      9816        85  SAPE      C316           28.9447930150      -27.9630371437        4.1696375835  MEMB      85              0.0000000000
      9817        85  SAPE      H16X           28.1324536669      -28.2475371640        3.4706062971  MEMB      85              0.0000000000
      9818        85  SAPE      H16Y           29.7658695238      -28.3908918039        3.6021117302  MEMB      85              0.0000000000
      9819        85  SAPE      C317           29.1474494047      -26.4244800287        4.3927802047  MEMB      85              0.0000000000
      9820        85  SAPE      H17X           30.1037630492      -26.2938784435        4.8959513438  MEMB      85              0.0000000000
      9821        85  SAPE      H17Y           28.5070372521      -26.1325633269        5.2369170771  MEMB      85              0.0000000000
      9822        85  SAPE      C318           29.0322811696      -25.3787596669        3.2314129257  MEMB      85              0.0000000000
      9823        85  SAPE      H18X           29.6249425675      -25.6205393829        2.3331370717  MEMB      85              0.0000000000
      9824        85  SAPE      H18Y           29.1481494294      -24.3244293814        3.5059311885  MEMB      85              0.0000000000
      9825        85  SAPE      H18Z           28.0122608127      -25.1939125870        2.9091804076  MEMB      85              0.0000000000
      9826        86  CHL1      C3            -24.8515173628       31.6014610318       17.5093164288  MEMB      86              0.0000000000
      9827        86  CHL1      H3            -25.0647408699       32.4962943430       17.9413044763  MEMB      86              0.0000000000
      9828        86  CHL1      O3            -24.5026903021       31.2753160229       18.8004773723  MEMB      86              0.0000000000
      9829        86  CHL1      H3'           -25.3353103089       31.5327622656       19.2693881698  MEMB      86              0.0000000000
      9830        86  CHL1      C4            -26.0613622750       30.9319345824       16.8780996795  MEMB      86              0.0000000000
      9831        86  CHL1      H4A           -25.7376466837       29.8948420127       16.9495110705  MEMB      86              0.0000000000
      9832        86  CHL1      H4B           -26.9006294253       31.1648749583       17.5808753021  MEMB      86              0.0000000000
      9833        86  CHL1      C5            -26.4203498897       31.2273668483       15.4287566419  MEMB      86              0.0000000000
      9834        86  CHL1      C6            -27.6783320476       31.4326898314       15.0700937407  MEMB      86              0.0000000000
      9835        86  CHL1      H6            -28.4317299684       31.2261875994       15.8293492141  MEMB      86              0.0000000000
      9836        86  CHL1      C7            -28.1981070824       32.1499288413       13.8575615662  MEMB      86              0.0000000000
      9837        86  CHL1      H7A           -29.2076796269       31.7805364470       13.6643592489  MEMB      86              0.0000000000
      9838        86  CHL1      H7B           -28.2888325809       33.2611713867       13.9065284117  MEMB      86              0.0000000000
      9839        86  CHL1      C8            -27.2283402638       31.8384458614       12.7718208992  MEMB      86              0.0000000000
      9840        86  CHL1      H8            -27.3244234695       30.7731422841       12.5433340147  MEMB      86              0.0000000000
      9841        86  CHL1      C14           -27.5036531612       32.5977022769       11.5425149842  MEMB      86              0.0000000000
      9842        86  CHL1      H14           -27.4211545422       33.7311204959       11.7694478501  MEMB      86              0.0000000000
      9843        86  CHL1      C15           -28.7429939066       32.3176923231       10.8927853042  MEMB      86              0.0000000000
      9844        86  CHL1      H15A          -29.4943760996       31.5664054893       11.1500152715  MEMB      86              0.0000000000
      9845        86  CHL1      H15B          -29.0545623535       33.2524140468       11.0244265063  MEMB      86              0.0000000000
      9846        86  CHL1      C16           -28.5577294901       32.7954524181        9.5305882297  MEMB      86              0.0000000000
      9847        86  CHL1      H16A          -29.0647107589       31.9343828870        9.0321229232  MEMB      86              0.0000000000
      9848        86  CHL1      H16B          -28.9026121461       33.9018264055        9.3287792400  MEMB      86              0.0000000000
      9849        86  CHL1      C17           -27.2394463776       32.8945531412        9.1728504210  MEMB      86              0.0000000000
      9850        86  CHL1      H17           -27.0588784175       33.9767282396        9.3220229021  MEMB      86              0.0000000000
      9851        86  CHL1      C13           -26.6907340674       32.1659395375       10.3277457873  MEMB      86              0.0000000000
      9852        86  CHL1      C18           -26.7348587891       30.7487256412        9.9219648499  MEMB      86              0.0000000000
      9853        86  CHL1      H18A          -25.9098860152       30.6280890063        9.1823112654  MEMB      86              0.0000000000
      9854        86  CHL1      H18B          -26.5143899251       30.1534291697       10.8028595029  MEMB      86              0.0000000000
      9855        86  CHL1      H18C          -27.7055829124       30.4878517104        9.4782045196  MEMB      86              0.0000000000
      9856        86  CHL1      C12           -25.3751590480       32.4327373199       10.6805634116  MEMB      86              0.0000000000
      9857        86  CHL1      H12A          -24.5371423924       32.2932985763       10.0006140232  MEMB      86              0.0000000000
      9858        86  CHL1      H12B          -25.7643419167       33.4357115038       10.7613100988  MEMB      86              0.0000000000
      9859        86  CHL1      C11           -24.9595340077       31.7872771527       11.9336478447  MEMB      86              0.0000000000
      9860        86  CHL1      H11A          -24.7410777886       30.7521092537       11.7163958574  MEMB      86              0.0000000000
      9861        86  CHL1      H11B          -23.9256654090       32.0377141839       11.9770824721  MEMB      86              0.0000000000
      9862        86  CHL1      C9            -25.8208486693       32.1248491725       13.1771814241  MEMB      86              0.0000000000
      9863        86  CHL1      H9            -25.8996078980       33.2131109932       13.4230909032  MEMB      86              0.0000000000
      9864        86  CHL1      C10           -25.2905932276       31.5191940834       14.5157444208  MEMB      86              0.0000000000
      9865        86  CHL1      C19           -24.5746691170       30.2231756307       14.2320211522  MEMB      86              0.0000000000
      9866        86  CHL1      H19A          -24.3050973163       29.7359574923       15.1917911556  MEMB      86              0.0000000000
      9867        86  CHL1      H19B          -25.2638813408       29.5850050309       13.6522114612  MEMB      86              0.0000000000
      9868        86  CHL1      H19C          -23.6412835271       30.4227947697       13.6644304135  MEMB      86              0.0000000000
      9869        86  CHL1      C1            -24.3031716032       32.3828592678       15.3149385024  MEMB      86              0.0000000000
      9870        86  CHL1      H1A           -23.2875092407       32.3575394981       14.8495986537  MEMB      86              0.0000000000
      9871        86  CHL1      H1B           -24.7482028857       33.3998308214       15.2174701639  MEMB      86              0.0000000000
      9872        86  CHL1      C2            -23.7632038628       31.9067628021       16.6287004153  MEMB      86              0.0000000000
      9873        86  CHL1      H2A           -23.1406418509       32.5828204693       17.2348606885  MEMB      86              0.0000000000
      9874        86  CHL1      H2B           -23.1399554290       31.0468602068       16.4068633355  MEMB      86              0.0000000000
      9875        86  CHL1      C20           -27.1710801679       32.3421130324        7.7881530936  MEMB      86              0.0000000000
      9876        86  CHL1      H20           -27.3928536298       31.2899161267        7.6588940549  MEMB      86              0.0000000000
      9877        86  CHL1      C21           -25.4404066076       32.6598238289        7.5778152097  MEMB      86              0.0000000000
      9878        86  CHL1      H21A          -24.9054871874       32.7603172093        8.4121814935  MEMB      86              0.0000000000
      9879        86  CHL1      H21B          -25.0287201228       33.7250352843        7.3567217901  MEMB      86              0.0000000000
      9880        86  CHL1      H21C          -24.8886713199       32.3065190882        6.6947283071  MEMB      86              0.0000000000
      9881        86  CHL1      C22           -28.6846109887       32.7837994302        6.7858931569  MEMB      86              0.0000000000
      9882        86  CHL1      H22A          -29.4214072201       32.3188466948        7.2601699736  MEMB      86              0.0000000000
      9883        86  CHL1      H22B          -29.0489600269       33.8619688441        6.8291658843  MEMB      86              0.0000000000
      9884        86  CHL1      C23           -28.9802669099       33.2298738497        5.2479440719  MEMB      86              0.0000000000
      9885        86  CHL1      H23A          -28.3774626023       34.0218971249        4.6998519213  MEMB      86              0.0000000000
      9886        86  CHL1      H23B          -28.7111565727       32.1812824374        5.1170798874  MEMB      86              0.0000000000
      9887        86  CHL1      C24           -29.9265880098       33.1072772593        4.1581774457  MEMB      86              0.0000000000
      9888        86  CHL1      H24A          -30.4645392140       32.2040874284        4.4796007808  MEMB      86              0.0000000000
      9889        86  CHL1      H24B          -30.2972008413       34.1463087785        4.3183670876  MEMB      86              0.0000000000
      9890        86  CHL1      C25           -29.2968795400       33.0543264294        2.7449452392  MEMB      86              0.0000000000
      9891        86  CHL1      H25           -28.9529683863       34.0572372168        2.3835194421  MEMB      86              0.0000000000
      9892        86  CHL1      C26           -28.1859722591       32.1221961175        2.4275689663  MEMB      86              0.0000000000
      9893        86  CHL1      H26A          -27.9547978136       32.2682824067        1.4522440552  MEMB      86              0.0000000000
      9894        86  CHL1      H26B          -27.1551488657       32.2119553209        2.7743414253  MEMB      86              0.0000000000
      9895        86  CHL1      H26C          -28.4136422051       31.0794737069        2.4716764534  MEMB      86              0.0000000000
      9896        86  CHL1      C27           -30.3814872210       32.4168795512        1.9277708360  MEMB      86              0.0000000000
      9897        86  CHL1      H27A          -30.0455933687       32.2394902883        0.8890212522  MEMB      86              0.0000000000
      9898        86  CHL1      H27B          -30.5747426867       31.4240800472        2.4051385485  MEMB      86              0.0000000000
      9899        86  CHL1      H27C          -31.2764138068       33.0520311016        1.9773427264  MEMB      86              0.0000000000
      9900        87  SAPS      N              29.5975884149       28.4891808589       22.7752738355  MEMB      87              0.0000000000
      9901        87  SAPS      HN1            30.4068338748       29.0281609304       23.1237722245  MEMB      87              0.0000000000
      9902        87  SAPS      HN2            28.7025952762       28.8019452777       23.1999995169  MEMB      87              0.0000000000
      9903        87  SAPS      HN3            29.7108552824       27.4519081240       22.7814856445  MEMB      87              0.0000000000
      9904        87  SAPS      C12            29.5913762665       28.7612851589       21.3477946284  MEMB      87              0.0000000000
      9905        87  SAPS      H12A           30.3012097315       29.5420984962       21.1189481277  MEMB      87              0.0000000000
      9906        87  SAPS      C13            29.8816473030       27.5234210364       20.4421601304  MEMB      87              0.0000000000
      9907        87  SAPS      O13A           29.9161638911       26.3937267198       21.0006390137  MEMB      87              0.0000000000
      9908        87  SAPS      O13B           30.3742069500       27.7518247821       19.3122429783  MEMB      87              0.0000000000
      9909        87  SAPS      C11            28.2169392799       29.2705786672       21.1127062585  MEMB      87              0.0000000000
      9910        87  SAPS      H11A           28.0204246284       30.2543581647       21.6074804873  MEMB      87              0.0000000000
      9911        87  SAPS      H11B           27.4233491829       28.5323473876       21.3955562464  MEMB      87              0.0000000000
      9912        87  SAPS      P              27.0194665657       29.7823619722       19.0961621254  MEMB      87              0.0000000000
      9913        87  SAPS      O13            26.0241859954       28.7006836417       19.0695051350  MEMB      87              0.0000000000
      9914        87  SAPS      O14            26.5827877706       30.9290718465       19.9171354367  MEMB      87              0.0000000000
      9915        87  SAPS      O12            28.2880806524       29.4332730205       19.7421617412  MEMB      87              0.0000000000
      9916        87  SAPS      O11            27.6766121530       30.0767628739       17.6771105444  MEMB      87              0.0000000000
      9917        87  SAPS      C1             28.7309025687       30.9233167458       17.2342007696  MEMB      87              0.0000000000
      9918        87  SAPS      HA             28.4932239531       31.9979487614       17.0726209930  MEMB      87              0.0000000000
      9919        87  SAPS      HB             29.4973570314       30.8964916095       18.0143590345  MEMB      87              0.0000000000
      9920        87  SAPS      C2             29.3153262632       30.4452917900       15.8813222031  MEMB      87              0.0000000000
      9921        87  SAPS      HS             30.1801885060       31.1031004232       15.6377719076  MEMB      87              0.0000000000
      9922        87  SAPS      O21            28.4075865045       30.3907928943       14.7566595138  MEMB      87              0.0000000000
      9923        87  SAPS      C21            28.2761330507       31.5486962599       14.1177801390  MEMB      87              0.0000000000
      9924        87  SAPS      O22            28.7475749069       32.6036269929       14.4570489060  MEMB      87              0.0000000000
      9925        87  SAPS      C22            27.2374678060       31.4159827288       13.0477775040  MEMB      87              0.0000000000
      9926        87  SAPS      H2R            26.4709621391       31.2452494088       13.7188057595  MEMB      87              0.0000000000
      9927        87  SAPS      H2S            26.8882598013       32.3545212574       12.6140580412  MEMB      87              0.0000000000
      9928        87  SAPS      C3             29.8408030318       29.0433486135       16.1210608598  MEMB      87              0.0000000000
      9929        87  SAPS      HX             28.9978021327       28.3441230293       16.3054758629  MEMB      87              0.0000000000
      9930        87  SAPS      HY             30.4677570947       29.0900708926       17.0370893783  MEMB      87              0.0000000000
      9931        87  SAPS      O31            30.6335281221       28.6758708039       15.0043325493  MEMB      87              0.0000000000
      9932        87  SAPS      C31            30.0164749815       28.0246943792       14.0676983419  MEMB      87              0.0000000000
      9933        87  SAPS      O32            28.9254319861       27.4993982711       14.0894188301  MEMB      87              0.0000000000
      9934        87  SAPS      C32            30.8177182672       28.0994233702       12.8330256404  MEMB      87              0.0000000000
      9935        87  SAPS      H2X            31.7495519619       27.5689971761       13.1233889583  MEMB      87              0.0000000000
      9936        87  SAPS      H2Y            30.9147938525       29.1802705552       12.5739727054  MEMB      87              0.0000000000
      9937        87  SAPS      C23            27.6397903712       30.3151650872       12.0883316781  MEMB      87              0.0000000000
      9938        87  SAPS      H3R            27.6499717112       29.3025658864       12.5598674283  MEMB      87              0.0000000000
      9939        87  SAPS      H3S            28.6558923413       30.6303721134       11.8174884169  MEMB      87              0.0000000000
      9940        87  SAPS      C24            26.9523137143       30.2093527574       10.7465019638  MEMB      87              0.0000000000
      9941        87  SAPS      H4R            26.1888475920       29.4865958827       10.9370076465  MEMB      87              0.0000000000
      9942        87  SAPS      H4S            27.3710803454       29.4645563989       10.0734160821  MEMB      87              0.0000000000
      9943        87  SAPS      C25            26.7017023481       31.5019588996       10.0072561463  MEMB      87              0.0000000000
      9944        87  SAPS      H5R            27.5327612842       32.1953455665       10.1675762972  MEMB      87              0.0000000000
      9945        87  SAPS      C26            25.7289361718       31.9197720020        9.1778384529  MEMB      87              0.0000000000
      9946        87  SAPS      H6R            25.9493516673       32.8588577726        8.6662578055  MEMB      87              0.0000000000
      9947        87  SAPS      C27            24.4877379404       31.2444243321        8.6579302792  MEMB      87              0.0000000000
      9948        87  SAPS      H7R            23.5705527868       31.6550157149        9.1457262148  MEMB      87              0.0000000000
      9949        87  SAPS      H7S            24.5436169004       30.1722585834        8.8551102294  MEMB      87              0.0000000000
      9950        87  SAPS      C28            24.2744184161       31.4341998082        7.2035600019  MEMB      87              0.0000000000
      9951        87  SAPS      H8R            23.6967050913       32.3386637889        6.9971134261  MEMB      87              0.0000000000
      9952        87  SAPS      C29            24.6767717449       30.6791269018        6.1751534589  MEMB      87              0.0000000000
      9953        87  SAPS      H9R            24.3293154371       31.0083686718        5.1950100167  MEMB      87              0.0000000000
      9954        87  SAPS      C210           25.4721803443       29.4005477551        6.1433861277  MEMB      87              0.0000000000
      9955        87  SAPS      H10R           26.4630845627       29.4778190101        6.6423749503  MEMB      87              0.0000000000
      9956        87  SAPS      H10S           25.6737274220       29.1346234807        5.0841897717  MEMB      87              0.0000000000
      9957        87  SAPS      C211           24.7543101681       28.2035285844        6.6219640252  MEMB      87              0.0000000000
      9958        87  SAPS      H11R           23.6663719123       28.1504041939        6.4461612487  MEMB      87              0.0000000000
      9959        87  SAPS      C212           25.3068731335       27.2035691750        7.2866615487  MEMB      87              0.0000000000
      9960        87  SAPS      H12R           24.6447007643       26.3563274582        7.3256741689  MEMB      87              0.0000000000
      9961        87  SAPS      C213           26.6867658241       26.8813494678        7.7926206424  MEMB      87              0.0000000000
      9962        87  SAPS      H13R           26.6014176985       26.5628116248        8.8561127437  MEMB      87              0.0000000000
      9963        87  SAPS      H13S           27.3445707874       27.7718950196        7.8063203659  MEMB      87              0.0000000000
      9964        87  SAPS      C214           27.3095956987       25.7551785971        7.0216175447  MEMB      87              0.0000000000
      9965        87  SAPS      H14R           26.9650082924       24.7492728840        7.2937716952  MEMB      87              0.0000000000
      9966        87  SAPS      C215           28.2123349042       25.9012338495        6.0444245062  MEMB      87              0.0000000000
      9967        87  SAPS      H15R           28.7134025710       25.0136250107        5.6257206442  MEMB      87              0.0000000000
      9968        87  SAPS      C216           28.7254395930       27.2335960428        5.5913419260  MEMB      87              0.0000000000
      9969        87  SAPS      H16R           29.5206481026       27.4147984171        6.2923304726  MEMB      87              0.0000000000
      9970        87  SAPS      H16S           28.0910191470       28.1161739672        5.8176364547  MEMB      87              0.0000000000
      9971        87  SAPS      C217           29.1415788817       27.3111658181        4.1183073247  MEMB      87              0.0000000000
      9972        87  SAPS      H17R           29.8752505365       26.5229775490        3.8287294765  MEMB      87              0.0000000000
      9973        87  SAPS      H17S           29.6595992910       28.2718192314        3.9457985680  MEMB      87              0.0000000000
      9974        87  SAPS      C218           27.8978882248       27.3589453341        3.2335106133  MEMB      87              0.0000000000
      9975        87  SAPS      H18R           27.2464533064       28.2104254245        3.5294326432  MEMB      87              0.0000000000
      9976        87  SAPS      H18S           27.3512896524       26.3996177359        3.2677059040  MEMB      87              0.0000000000
      9977        87  SAPS      C219           28.2095033203       27.6641447414        1.8205286200  MEMB      87              0.0000000000
      9978        87  SAPS      H19R           28.9549977990       28.5126594934        1.9048278262  MEMB      87              0.0000000000
      9979        87  SAPS      H19S           27.3367465197       28.0189495485        1.2406643770  MEMB      87              0.0000000000
      9980        87  SAPS      C220           28.8403439178       26.4747626174        1.1213638288  MEMB      87              0.0000000000
      9981        87  SAPS      H20R           28.3846099290       25.5050802740        1.2398422163  MEMB      87              0.0000000000
      9982        87  SAPS      H20S           29.8621095047       26.6856191654        1.5050939151  MEMB      87              0.0000000000
      9983        87  SAPS      H20T           29.0632640304       26.4329272034        0.0303442137  MEMB      87              0.0000000000
      9984        87  SAPS      C33            30.0523921489       27.4978550094       11.6692418938  MEMB      87              0.0000000000
      9985        87  SAPS      H3X            29.2041978353       28.1580014758       11.4674566534  MEMB      87              0.0000000000
      9986        87  SAPS      H3Y            29.8527068087       26.4343269231       11.9454103485  MEMB      87              0.0000000000
      9987        87  SAPS      C34            30.6918970009       27.5270015263       10.3173669026  MEMB      87              0.0000000000
      9988        87  SAPS      H4X            30.4240069906       26.8083101823        9.5329222177  MEMB      87              0.0000000000
      9989        87  SAPS      H4Y            31.4669119356       26.9133260857       10.7772592593  MEMB      87              0.0000000000
      9990        87  SAPS      C35            31.1044823882       28.9136157064        9.7387584321  MEMB      87              0.0000000000
      9991        87  SAPS      H5X            31.6962984519       28.8414245156        8.7886758020  MEMB      87              0.0000000000
      9992        87  SAPS      H5Y            31.7722237682       29.4215896563       10.4316287338  MEMB      87              0.0000000000
      9993        87  SAPS      C36            30.0666159223       29.8824685356        9.3851329371  MEMB      87              0.0000000000
      9994        87  SAPS      H6X            29.8312862356       30.4403358232       10.3080275799  MEMB      87              0.0000000000
      9995        87  SAPS      H6Y            29.2023807648       29.2744930583        9.0627982538  MEMB      87              0.0000000000
      9996        87  SAPS      C37            30.5989092582       30.7381026437        8.2450811491  MEMB      87              0.0000000000
      9997        87  SAPS      H7X            30.7652962881       30.0746050722        7.3605695536  MEMB      87              0.0000000000
      9998        87  SAPS      H7Y            31.5868188114       31.2110351204        8.4531775938  MEMB      87              0.0000000000
      9999        87  SAPS      C38            29.5685199056       31.7790159168        7.9726285896  MEMB      87              0.0000000000
     10000        87  SAPS      H8X            29.3922211290       32.4225180156        8.8645532354  MEMB      87              0.0000000000
     10001        87  SAPS      H8Y            28.6126010713       31.2597788442        7.7030426876  MEMB      87              0.0000000000
     10002        87  SAPS      C39            30.0119866239       32.6813300561        6.8947347408  MEMB      87              0.0000000000
     10003        87  SAPS      H9X            30.5389661172       32.2177543470        6.0335951325  MEMB      87              0.0000000000
     10004        87  SAPS      H9Y            30.6150093728       33.5433253092        7.2642189740  MEMB      87              0.0000000000
     10005        87  SAPS      C310           28.8065462441       33.2259904530        6.3427965948  MEMB      87              0.0000000000
     10006        87  SAPS      H10X           28.3069805975       33.8600683236        7.1134445390  MEMB      87              0.0000000000
     10007        87  SAPS      H10Y           28.0303014944       32.5473345696        5.9189391716  MEMB      87              0.0000000000
     10008        87  SAPS      C311           29.4197482220       34.0222257991        5.3308417896  MEMB      87              0.0000000000
     10009        87  SAPS      H11X           29.7727667384       33.6491917899        4.3237592696  MEMB      87              0.0000000000
     10010        87  SAPS      H11Y           30.0617384345       34.8377242880        5.8645451532  MEMB      87              0.0000000000
     10011        87  SAPS      C312           28.1748782364       34.5337398395        5.0768679308  MEMB      87              0.0000000000
     10012        87  SAPS      H12X           28.9068342166       35.2080655316        4.6587595961  MEMB      87              0.0000000000
     10013        87  SAPS      H12Y           27.8658669460       35.3442052718        5.7063727070  MEMB      87              0.0000000000
     10014        87  SAPS      C313           27.0091070820       33.9605255476        4.1792802868  MEMB      87              0.0000000000
     10015        87  SAPS      H13X           26.4492961563       34.5996221017        3.4071029778  MEMB      87              0.0000000000
     10016        87  SAPS      H13Y           26.0950613868       33.8916199864        4.7521647098  MEMB      87              0.0000000000
     10017        87  SAPS      C314           27.2596593590       32.8383380735        3.2919273547  MEMB      87              0.0000000000
     10018        87  SAPS      H14X           28.1111593788       32.2769263270        3.5791162462  MEMB      87              0.0000000000
     10019        87  SAPS      H14Y           27.3601349520       33.2665816662        2.3004922456  MEMB      87              0.0000000000
     10020        87  SAPS      C315           26.0134823974       32.0683743617        3.2459815654  MEMB      87              0.0000000000
     10021        87  SAPS      H15X           25.4883968988       33.0000273719        3.3325286305  MEMB      87              0.0000000000
     10022        87  SAPS      H15Y           25.4240757182       31.9492738108        4.1267603843  MEMB      87              0.0000000000
     10023        87  SAPS      C316           25.8734289905       31.0816938833        2.0186442040  MEMB      87              0.0000000000
     10024        87  SAPS      H16X           26.4868182112       30.2552931297        2.4037761360  MEMB      87              0.0000000000
     10025        87  SAPS      H16Y           26.3217581638       31.4227900960        1.0498409205  MEMB      87              0.0000000000
     10026        87  SAPS      C317           24.4581976700       30.5785139926        1.5409977642  MEMB      87              0.0000000000
     10027        87  SAPS      H17X           23.7826557986       31.2886857086        0.9646244084  MEMB      87              0.0000000000
     10028        87  SAPS      H17Y           23.8689774277       30.2343611351        2.3904848330  MEMB      87              0.0000000000
     10029        87  SAPS      C318           24.3631334340       29.8198696486        0.3342880943  MEMB      87              0.0000000000
     10030        87  SAPS      H18X           23.2985509135       29.7097985453       -0.0107451090  MEMB      87              0.0000000000
     10031        87  SAPS      H18Y           24.7657768704       28.8265211446        0.5372632674  MEMB      87              0.0000000000
     10032        87  SAPS      H18Z           24.8427078312       30.3559687263       -0.5281746017  MEMB      87              0.0000000000
     10033        88  CHL1      C3            -24.6468777070      -32.9253477852       17.4223275969  MEMB      88              0.0000000000
     10034        88  CHL1      H3            -24.9047760884      -31.8626778513       17.6127884640  MEMB      88              0.0000000000
     10035        88  CHL1      O3            -24.3410151780      -33.5802388736       18.6290190630  MEMB      88              0.0000000000
     10036        88  CHL1      H3'           -23.7105599810      -33.0396588133       19.1464752472  MEMB      88              0.0000000000
     10037        88  CHL1      C4            -25.6960496492      -33.7446266153       16.7165817252  MEMB      88              0.0000000000
     10038        88  CHL1      H4A           -25.3477411389      -34.7952779130       16.7676066574  MEMB      88              0.0000000000
     10039        88  CHL1      H4B           -26.6417020606      -33.7525447059       17.3034991567  MEMB      88              0.0000000000
     10040        88  CHL1      C5            -25.8197010469      -33.2551719817       15.2834521495  MEMB      88              0.0000000000
     10041        88  CHL1      C6            -26.9465083462      -32.8316207986       14.7593773525  MEMB      88              0.0000000000
     10042        88  CHL1      H6            -27.8346588967      -32.9847785835       15.4112849047  MEMB      88              0.0000000000
     10043        88  CHL1      C7            -27.2424780105      -32.2045975461       13.3880037826  MEMB      88              0.0000000000
     10044        88  CHL1      H7A           -28.2347489889      -32.5379752246       12.9981428447  MEMB      88              0.0000000000
     10045        88  CHL1      H7B           -27.4535173184      -31.1128598872       13.3561493826  MEMB      88              0.0000000000
     10046        88  CHL1      C8            -26.0932651817      -32.5853485152       12.4259660433  MEMB      88              0.0000000000
     10047        88  CHL1      H8            -25.7045342548      -33.5600481468       12.1561686080  MEMB      88              0.0000000000
     10048        88  CHL1      C14           -26.4030413664      -32.1381783292       11.0179275564  MEMB      88              0.0000000000
     10049        88  CHL1      H14           -26.3693905201      -31.1782087699       11.3319111052  MEMB      88              0.0000000000
     10050        88  CHL1      C15           -27.8059521110      -32.1254049117       10.3164748319  MEMB      88              0.0000000000
     10051        88  CHL1      H15A          -28.3596044767      -33.0216920160       10.1399659605  MEMB      88              0.0000000000
     10052        88  CHL1      H15B          -28.6182648937      -31.6607963839       10.8845985972  MEMB      88              0.0000000000
     10053        88  CHL1      C16           -27.4809980814      -31.8561169068        8.8689847052  MEMB      88              0.0000000000
     10054        88  CHL1      H16A          -27.8439804869      -32.5736549020        8.1174550408  MEMB      88              0.0000000000
     10055        88  CHL1      H16B          -28.1686883182      -31.0687611797        8.5620225818  MEMB      88              0.0000000000
     10056        88  CHL1      C17           -25.8996270293      -31.7609860079        8.7909001915  MEMB      88              0.0000000000
     10057        88  CHL1      H17           -25.5755309622      -30.7291503952        9.0169855966  MEMB      88              0.0000000000
     10058        88  CHL1      C13           -25.3145163050      -32.4506363276       10.0401643943  MEMB      88              0.0000000000
     10059        88  CHL1      C18           -25.0963468163      -33.8975060522        9.7038267446  MEMB      88              0.0000000000
     10060        88  CHL1      H18A          -24.6620484429      -34.0798646981        8.7348101141  MEMB      88              0.0000000000
     10061        88  CHL1      H18B          -24.8887205657      -34.6195656608       10.5191732052  MEMB      88              0.0000000000
     10062        88  CHL1      H18C          -25.9873462979      -34.2491110870        9.3482383922  MEMB      88              0.0000000000
     10063        88  CHL1      C12           -24.0211167858      -31.9837428213       10.7010202954  MEMB      88              0.0000000000
     10064        88  CHL1      H12A          -23.2994014115      -31.9957036236        9.8920802996  MEMB      88              0.0000000000
     10065        88  CHL1      H12B          -24.0885088904      -30.9133637341       10.9644187143  MEMB      88              0.0000000000
     10066        88  CHL1      C11           -23.6420128040      -32.7216916196       12.0298379050  MEMB      88              0.0000000000
     10067        88  CHL1      H11A          -23.3455084813      -33.7768484097       12.0930953107  MEMB      88              0.0000000000
     10068        88  CHL1      H11B          -22.6905669889      -32.2931030841       12.3322959000  MEMB      88              0.0000000000
     10069        88  CHL1      C9            -24.7510872336      -32.4750324728       13.0787667397  MEMB      88              0.0000000000
     10070        88  CHL1      H9            -24.7907222997      -31.4150506462       13.3379413979  MEMB      88              0.0000000000
     10071        88  CHL1      C10           -24.6062956809      -33.2513343564       14.4262254542  MEMB      88              0.0000000000
     10072        88  CHL1      C19           -24.1938997403      -34.7163600335       14.3491621185  MEMB      88              0.0000000000
     10073        88  CHL1      H19A          -23.3144961502      -34.7808888621       13.7536971549  MEMB      88              0.0000000000
     10074        88  CHL1      H19B          -23.8945019735      -35.1288489559       15.3233369430  MEMB      88              0.0000000000
     10075        88  CHL1      H19C          -24.8695727281      -35.4888301948       13.9524815340  MEMB      88              0.0000000000
     10076        88  CHL1      C1            -23.5426593323      -32.4864540332       15.1578475986  MEMB      88              0.0000000000
     10077        88  CHL1      H1A           -22.5766338261      -32.5713322710       14.6097361631  MEMB      88              0.0000000000
     10078        88  CHL1      H1B           -23.8761661125      -31.4293875254       15.1575979893  MEMB      88              0.0000000000
     10079        88  CHL1      C2            -23.3953042157      -32.9334827376       16.5967324291  MEMB      88              0.0000000000
     10080        88  CHL1      H2A           -22.8756516186      -32.1662343949       17.1694615838  MEMB      88              0.0000000000
     10081        88  CHL1      H2B           -22.8911182464      -33.9169905101       16.6210989793  MEMB      88              0.0000000000
     10082        88  CHL1      C20           -25.3995652449      -32.1203606503        7.3796951441  MEMB      88              0.0000000000
     10083        88  CHL1      H20           -25.6883997646      -33.1667666405        7.1505892090  MEMB      88              0.0000000000
     10084        88  CHL1      C21           -23.8641894045      -31.9735353480        7.3016042572  MEMB      88              0.0000000000
     10085        88  CHL1      H21A          -23.4650392572      -31.9535483751        6.2703773743  MEMB      88              0.0000000000
     10086        88  CHL1      H21B          -23.3614049935      -32.8269165828        7.7991348120  MEMB      88              0.0000000000
     10087        88  CHL1      H21C          -23.5644771418      -31.0382751223        7.8165774041  MEMB      88              0.0000000000
     10088        88  CHL1      C22           -26.1090655374      -31.2154404898        6.3568450459  MEMB      88              0.0000000000
     10089        88  CHL1      H22A          -27.2175375980      -31.3198265744        6.3926243423  MEMB      88              0.0000000000
     10090        88  CHL1      H22B          -25.8236269281      -30.2234840187        6.7095348630  MEMB      88              0.0000000000
     10091        88  CHL1      C23           -25.6386390718      -31.2226270817        4.9059042521  MEMB      88              0.0000000000
     10092        88  CHL1      H23A          -25.8912597346      -30.2357992278        4.5020369142  MEMB      88              0.0000000000
     10093        88  CHL1      H23B          -24.5429813107      -31.2403522544        4.8312059313  MEMB      88              0.0000000000
     10094        88  CHL1      C24           -26.3015962698      -32.3306376022        4.0899027100  MEMB      88              0.0000000000
     10095        88  CHL1      H24A          -26.2896780740      -33.2214066469        4.7511575404  MEMB      88              0.0000000000
     10096        88  CHL1      H24B          -27.3914998463      -32.1729285222        3.9651902463  MEMB      88              0.0000000000
     10097        88  CHL1      C25           -25.6161307845      -32.6822261582        2.7317213913  MEMB      88              0.0000000000
     10098        88  CHL1      H25           -24.6689902197      -33.1863362828        3.0195338412  MEMB      88              0.0000000000
     10099        88  CHL1      C26           -26.5068272342      -33.6136653530        1.9612814579  MEMB      88              0.0000000000
     10100        88  CHL1      H26A          -27.4805890464      -33.2256122087        1.6346995271  MEMB      88              0.0000000000
     10101        88  CHL1      H26B          -25.9386891208      -33.9732924524        1.0648231574  MEMB      88              0.0000000000
     10102        88  CHL1      H26C          -26.7289394899      -34.4203135456        2.6869853635  MEMB      88              0.0000000000
     10103        88  CHL1      C27           -25.1765405632      -31.6149865834        1.7339464687  MEMB      88              0.0000000000
     10104        88  CHL1      H27A          -24.5304340800      -30.8890880416        2.2710595399  MEMB      88              0.0000000000
     10105        88  CHL1      H27B          -24.7575220904      -31.9230460252        0.7687680305  MEMB      88              0.0000000000
     10106        88  CHL1      H27C          -26.0529407106      -31.1609675942        1.2749920967  MEMB      88              0.0000000000
     10107        89  OSM       N             -32.6148183754       29.5077356885       22.7112113253  MEMB      89              0.0000000000
     10108        89  OSM       C15           -33.2951728656       28.2172133204       22.3741225948  MEMB      89              0.0000000000
     10109        89  OSM       H15A          -34.1316181364       28.0371370778       23.0371333967  MEMB      89              0.0000000000
     10110        89  OSM       H15B          -32.6169188567       27.3656510849       22.4278447722  MEMB      89              0.0000000000
     10111        89  OSM       H15C          -33.6490802700       28.2826129974       21.3440094297  MEMB      89              0.0000000000
     10112        89  OSM       C14           -33.5551985422       30.6277268689       22.4697302227  MEMB      89              0.0000000000
     10113        89  OSM       H14A          -34.5172569406       30.5215502325       22.9650265711  MEMB      89              0.0000000000
     10114        89  OSM       H14B          -33.6882948929       30.8145357355       21.4047344176  MEMB      89              0.0000000000
     10115        89  OSM       H14C          -33.1569608106       31.5609286277       22.8659510081  MEMB      89              0.0000000000
     10116        89  OSM       C13           -32.1895286572       29.5592726445       24.1437077640  MEMB      89              0.0000000000
     10117        89  OSM       H13A          -31.5514251119       28.7120567447       24.3569449027  MEMB      89              0.0000000000
     10118        89  OSM       H13B          -33.0385666056       29.5948282113       24.8098858116  MEMB      89              0.0000000000
     10119        89  OSM       H13C          -31.6330442294       30.4843698543       24.2867507610  MEMB      89              0.0000000000
     10120        89  OSM       C12           -31.3401960751       29.7472384901       21.9059045007  MEMB      89              0.0000000000
     10121        89  OSM       H12A          -30.5711843941       29.0957663503       22.2976270702  MEMB      89              0.0000000000
     10122        89  OSM       H12B          -31.0199038096       30.7769070060       22.0704953860  MEMB      89              0.0000000000
     10123        89  OSM       C11           -31.2965427405       29.5684666535       20.3697724250  MEMB      89              0.0000000000
     10124        89  OSM       H11A          -30.2572684810       29.8815903512       20.0771236336  MEMB      89              0.0000000000
     10125        89  OSM       H11B          -31.9703534302       30.3098161238       19.8954740611  MEMB      89              0.0000000000
     10126        89  OSM       P             -30.4517486643       27.2724161723       19.4252914951  MEMB      89              0.0000000000
     10127        89  OSM       O13           -29.1578307138       27.8021334835       19.9019490845  MEMB      89              0.0000000000
     10128        89  OSM       O14           -30.8255306976       25.9088132147       19.8121688928  MEMB      89              0.0000000000
     10129        89  OSM       O11           -30.4863280891       27.3956073466       17.8472176845  MEMB      89              0.0000000000
     10130        89  OSM       O12           -31.6321121554       28.2440342589       19.9351377973  MEMB      89              0.0000000000
     10131        89  OSM       C1S           -31.6614493444       27.7524137228       17.1487142782  MEMB      89              0.0000000000
     10132        89  OSM       H1S           -31.5656988577       28.8201143797       17.0716773243  MEMB      89              0.0000000000
     10133        89  OSM       H1T           -32.5770707785       27.4783186220       17.7293355805  MEMB      89              0.0000000000
     10134        89  OSM       NF            -32.3990678485       27.7525179149       14.6166332040  MEMB      89              0.0000000000
     10135        89  OSM       HNF           -33.3404789531       27.4013388904       14.5664941949  MEMB      89              0.0000000000
     10136        89  OSM       C2S           -31.6642287176       27.1299931780       15.7048034662  MEMB      89              0.0000000000
     10137        89  OSM       H2S           -30.6293100639       27.1315369664       15.3328089477  MEMB      89              0.0000000000
     10138        89  OSM       C3S           -32.1704155880       25.7018420165       15.8652016236  MEMB      89              0.0000000000
     10139        89  OSM       H3S           -33.1268078840       25.6394118716       16.4355749502  MEMB      89              0.0000000000
     10140        89  OSM       O3            -31.2556714695       24.9931743378       16.5896428087  MEMB      89              0.0000000000
     10141        89  OSM       HO3           -30.7657155664       25.6761732076       17.0504891260  MEMB      89              0.0000000000
     10142        89  OSM       C4S           -32.3465649404       25.1902141132       14.4844284414  MEMB      89              0.0000000000
     10143        89  OSM       H4S           -31.5544645347       25.4576900519       13.7895277367  MEMB      89              0.0000000000
     10144        89  OSM       C5S           -33.3022984974       24.4707485607       13.9647576723  MEMB      89              0.0000000000
     10145        89  OSM       H5S           -34.1849597005       24.1199437514       14.5389409288  MEMB      89              0.0000000000
     10146        89  OSM       C6S           -33.2801647390       24.1636098524       12.5407771388  MEMB      89              0.0000000000
     10147        89  OSM       H6S           -34.2358038391       23.6631341511       12.2226768510  MEMB      89              0.0000000000
     10148        89  OSM       H6T           -32.4241617471       23.5154214133       12.6389942134  MEMB      89              0.0000000000
     10149        89  OSM       C7S           -32.6528169014       24.9332301519       11.3955972489  MEMB      89              0.0000000000
     10150        89  OSM       H7S           -32.8774618276       24.2833692452       10.4951572752  MEMB      89              0.0000000000
     10151        89  OSM       H7T           -31.5930300429       25.1097970860       11.6416859234  MEMB      89              0.0000000000
     10152        89  OSM       C8S           -32.9934135680       26.2310832748       11.2026314468  MEMB      89              0.0000000000
     10153        89  OSM       H8S           -33.0522028333       26.5711305941       12.2586337142  MEMB      89              0.0000000000
     10154        89  OSM       H8T           -33.8406279713       25.7328570182       10.7194255839  MEMB      89              0.0000000000
     10155        89  OSM       C9S           -32.3661465207       27.2364626846       10.3819292237  MEMB      89              0.0000000000
     10156        89  OSM       H9S           -31.3927785528       27.2547215656       10.8744215673  MEMB      89              0.0000000000
     10157        89  OSM       H9T           -32.9570771637       28.1370180677       10.6836138053  MEMB      89              0.0000000000
     10158        89  OSM       C10S          -32.3176767967       26.9129835712        8.9012337213  MEMB      89              0.0000000000
     10159        89  OSM       H10S          -33.1708974081       26.8584745857        8.2277766492  MEMB      89              0.0000000000
     10160        89  OSM       H10T          -32.0247440236       25.9065600132        8.7132732769  MEMB      89              0.0000000000
     10161        89  OSM       C11S          -31.6883843114       28.0148471172        8.1963077808  MEMB      89              0.0000000000
     10162        89  OSM       H11S          -30.6277980032       27.8639807933        8.4573999262  MEMB      89              0.0000000000
     10163        89  OSM       H11T          -32.1527672092       28.9249964967        8.6587350862  MEMB      89              0.0000000000
     10164        89  OSM       C12S          -32.0003644509       27.8757850551        6.7238958937  MEMB      89              0.0000000000
     10165        89  OSM       H12S          -33.0996637607       27.8856049283        6.5328312399  MEMB      89              0.0000000000
     10166        89  OSM       H12T          -31.6767906240       26.8763307690        6.3600108520  MEMB      89              0.0000000000
     10167        89  OSM       C13S          -31.3866351591       29.0572460768        6.0294319193  MEMB      89              0.0000000000
     10168        89  OSM       H13S          -30.3105497383       29.1821694540        6.1845925112  MEMB      89              0.0000000000
     10169        89  OSM       H13T          -31.9222714188       29.9732941837        6.3815250438  MEMB      89              0.0000000000
     10170        89  OSM       C14S          -31.6682756686       29.0423404072        4.5733094118  MEMB      89              0.0000000000
     10171        89  OSM       H14S          -31.5279143256       30.0588535122        4.1842809805  MEMB      89              0.0000000000
     10172        89  OSM       H14T          -32.7486904074       29.0051625225        4.6992245752  MEMB      89              0.0000000000
     10173        89  OSM       C15S          -30.9672033799       27.9502000311        3.7285291815  MEMB      89              0.0000000000
     10174        89  OSM       H15S          -31.4565670716       27.7652461428        2.7504326729  MEMB      89              0.0000000000
     10175        89  OSM       H15T          -30.9558859879       26.9825913202        4.2687757651  MEMB      89              0.0000000000
     10176        89  OSM       C16S          -29.5940946367       28.4774709980        3.3285410002  MEMB      89              0.0000000000
     10177        89  OSM       H16S          -28.9033516406       28.2790252937        4.1705033630  MEMB      89              0.0000000000
     10178        89  OSM       H16T          -29.7863882490       29.5733776382        3.2697649362  MEMB      89              0.0000000000
     10179        89  OSM       C17S          -29.0369263142       28.0325483072        1.9540766453  MEMB      89              0.0000000000
     10180        89  OSM       H17S          -29.8764331382       27.9905586813        1.2287826372  MEMB      89              0.0000000000
     10181        89  OSM       H17T          -28.6054772458       27.0112840163        2.0094690947  MEMB      89              0.0000000000
     10182        89  OSM       C18S          -27.9522104957       28.9348421990        1.3569751875  MEMB      89              0.0000000000
     10183        89  OSM       H18S          -28.3551411262       29.9203490192        1.0620601891  MEMB      89              0.0000000000
     10184        89  OSM       H18T          -27.5052699944       28.5274516593        0.4369914296  MEMB      89              0.0000000000
     10185        89  OSM       H18U          -27.1309294255       29.0617391691        2.0804862047  MEMB      89              0.0000000000
     10186        89  OSM       C1F           -32.1258717252       28.8180092454       13.9561385511  MEMB      89              0.0000000000
     10187        89  OSM       OF            -31.0885131974       29.4099031445       14.0374057202  MEMB      89              0.0000000000
     10188        89  OSM       C2F           -33.3092784582       29.4555674888       13.5542914646  MEMB      89              0.0000000000
     10189        89  OSM       H2F           -33.8922844045       29.4020666794       14.5147494065  MEMB      89              0.0000000000
     10190        89  OSM       H2G           -34.0570408432       28.8966353335       13.0186434598  MEMB      89              0.0000000000
     10191        89  OSM       C3F           -32.8894931168       30.8323376755       12.9473783565  MEMB      89              0.0000000000
     10192        89  OSM       H3F           -32.4858751903       31.6560635966       13.5371846473  MEMB      89              0.0000000000
     10193        89  OSM       H3G           -33.5826271742       31.7142078730       12.8384646181  MEMB      89              0.0000000000
     10194        89  OSM       C4F           -32.4862519130       30.6036530564       11.5976838839  MEMB      89              0.0000000000
     10195        89  OSM       H4F           -33.0188631621       30.0371697325       10.8156685538  MEMB      89              0.0000000000
     10196        89  OSM       H4G           -31.5007739871       30.1371909465       11.7747307118  MEMB      89              0.0000000000
     10197        89  OSM       C5F           -32.5672569140       31.9939399070       11.1492999432  MEMB      89              0.0000000000
     10198        89  OSM       H5F           -31.9269913963       31.5644644098       10.3640764529  MEMB      89              0.0000000000
     10199        89  OSM       H5G           -31.8130342795       32.3833824579       11.8557795154  MEMB      89              0.0000000000
     10200        89  OSM       C6F           -33.8545230188       33.0645474555       10.5207869058  MEMB      89              0.0000000000
     10201        89  OSM       H6F           -34.1936629215       33.9156134537       11.1304093971  MEMB      89              0.0000000000
     10202        89  OSM       H6G           -34.1760996937       32.1600105304       10.3815760697  MEMB      89              0.0000000000
     10203        89  OSM       C7F           -34.1074899155       33.7638783434        8.9323475410  MEMB      89              0.0000000000
     10204        89  OSM       H7F           -33.4242413536       34.4243239308        8.2842047780  MEMB      89              0.0000000000
     10205        89  OSM       H7G           -34.1178232358       34.8523646706        9.0424899150  MEMB      89              0.0000000000
     10206        89  OSM       C8F           -33.8243023285       32.8362584248        7.7663382657  MEMB      89              0.0000000000
     10207        89  OSM       H8F           -33.4018587038       31.8576261703        8.1386218770  MEMB      89              0.0000000000
     10208        89  OSM       H8G           -33.3233000860       32.6891716669        6.8022299101  MEMB      89              0.0000000000
     10209        89  OSM       C9F           -35.1013288963       33.2429073044        7.1989060028  MEMB      89              0.0000000000
     10210        89  OSM       H9F           -35.8911249332       32.9471466326        7.8722966904  MEMB      89              0.0000000000
     10211        89  OSM       C10F          -35.3540156468       33.5473915504        5.9526089683  MEMB      89              0.0000000000
     10212        89  OSM       H10F          -36.3988881820       33.3902758453        5.7972435799  MEMB      89              0.0000000000
     10213        89  OSM       C11F          -34.4344243194       33.5825970084        4.7437425676  MEMB      89              0.0000000000
     10214        89  OSM       H11F          -33.5184783845       34.0694948448        5.0533043273  MEMB      89              0.0000000000
     10215        89  OSM       H11G          -34.9992919196       34.1100143455        3.9757772415  MEMB      89              0.0000000000
     10216        89  OSM       C12F          -33.7128298950       32.5475037197        3.8941908918  MEMB      89              0.0000000000
     10217        89  OSM       H12F          -33.0201479463       31.9150046786        4.5166045778  MEMB      89              0.0000000000
     10218        89  OSM       H12G          -33.1658877886       32.9349476537        3.0052507509  MEMB      89              0.0000000000
     10219        89  OSM       C13F          -34.7322850765       31.7257566125        3.2680978979  MEMB      89              0.0000000000
     10220        89  OSM       H13F          -35.4200907181       31.5918177276        2.5998139340  MEMB      89              0.0000000000
     10221        89  OSM       H13G          -35.2226407541       30.8223133088        3.4469516570  MEMB      89              0.0000000000
     10222        89  OSM       C14F          -34.3439977934       30.8945057374        2.6317436962  MEMB      89              0.0000000000
     10223        89  OSM       H14F          -33.3427022633       30.6998665387        3.1465935051  MEMB      89              0.0000000000
     10224        89  OSM       H14G          -33.5858429863       31.3001175287        1.8021880485  MEMB      89              0.0000000000
     10225        89  OSM       C15F          -35.7604698622       29.0761816535        2.2353959571  MEMB      89              0.0000000000
     10226        89  OSM       H15F          -36.2064539175       29.9435400884        1.9536550902  MEMB      89              0.0000000000
     10227        89  OSM       H15G          -36.6021516088       28.4874583084        2.2672553775  MEMB      89              0.0000000000
     10228        89  OSM       C16F          -34.9482723696       27.6646933275        0.7603766178  MEMB      89              0.0000000000
     10229        89  OSM       H16F          -34.7252861406       26.7005308881        1.0951560076  MEMB      89              0.0000000000
     10230        89  OSM       H16G          -33.8458376795       27.8784449129        0.6272379814  MEMB      89              0.0000000000
     10231        89  OSM       C17F          -34.3123463155       27.4618572878       -0.8266551379  MEMB      89              0.0000000000
     10232        89  OSM       H17F          -33.5759510569       28.2501265105       -1.4068724818  MEMB      89              0.0000000000
     10233        89  OSM       H17G          -35.3453783918       27.6270761062       -0.6153118899  MEMB      89              0.0000000000
     10234        89  OSM       C18F          -33.5764736881       27.7733003219       -2.2477572895  MEMB      89              0.0000000000
     10235        89  OSM       H18F          -34.2775870497       27.8510742708       -3.1536609410  MEMB      89              0.0000000000
     10236        89  OSM       H18G          -34.2392942327       26.8815954700       -1.8836174473  MEMB      89              0.0000000000
     10237        89  OSM       H18H          -32.4949590374       27.6486033365       -2.5872968303  MEMB      89              0.0000000000
     10238        90  SAPE      N             -33.4748039779      -27.9613388627       22.0729381480  MEMB      90              0.0000000000
     10239        90  SAPE      HN1           -34.2824728304      -27.8582323549       21.4204363328  MEMB      90              0.0000000000
     10240        90  SAPE      HN2           -33.8101940269      -27.7862760790       23.0429043714  MEMB      90              0.0000000000
     10241        90  SAPE      HN3           -32.7853497197      -27.2320849854       21.7878284519  MEMB      90              0.0000000000
     10242        90  SAPE      C12           -32.7738912223      -29.2973709134       21.9912128868  MEMB      90              0.0000000000
     10243        90  SAPE      H12A          -33.5175910298      -30.0917874544       22.1787272870  MEMB      90              0.0000000000
     10244        90  SAPE      H12B          -31.9942573894      -29.2977242902       22.7798685680  MEMB      90              0.0000000000
     10245        90  SAPE      C11           -32.1565497538      -29.5178179560       20.6107397767  MEMB      90              0.0000000000
     10246        90  SAPE      H11A          -32.8935835513      -29.2677169677       19.8402397522  MEMB      90              0.0000000000
     10247        90  SAPE      H11B          -31.8937534743      -30.5823505504       20.4392970919  MEMB      90              0.0000000000
     10248        90  SAPE      P             -30.3257426414      -28.7228497227       18.9774160977  MEMB      90              0.0000000000
     10249        90  SAPE      O13           -31.3881370665      -28.4447493122       18.0045857334  MEMB      90              0.0000000000
     10250        90  SAPE      O14           -29.1341273515      -27.8829991894       19.0361347686  MEMB      90              0.0000000000
     10251        90  SAPE      O12           -31.0167618725      -28.7007490864       20.4378133719  MEMB      90              0.0000000000
     10252        90  SAPE      O11           -29.9063141366      -30.2308173800       18.8304234874  MEMB      90              0.0000000000
     10253        90  SAPE      C1            -28.8795480593      -30.6966776527       19.7012675650  MEMB      90              0.0000000000
     10254        90  SAPE      HA            -28.0781630066      -29.9567072576       19.9174555051  MEMB      90              0.0000000000
     10255        90  SAPE      HB            -29.3464843042      -31.0573281587       20.6403115341  MEMB      90              0.0000000000
     10256        90  SAPE      C2            -28.1329322386      -31.8697201037       19.1156693712  MEMB      90              0.0000000000
     10257        90  SAPE      HS            -27.1453665015      -31.9995799530       19.6396883290  MEMB      90              0.0000000000
     10258        90  SAPE      O21           -27.9334176919      -31.7914592122       17.6992494014  MEMB      90              0.0000000000
     10259        90  SAPE      C21           -27.1797577436      -30.7586085470       17.3387973587  MEMB      90              0.0000000000
     10260        90  SAPE      O22           -26.3669664406      -30.1592703605       18.0092704210  MEMB      90              0.0000000000
     10261        90  SAPE      C22           -27.3969426799      -30.4612333839       15.9002384550  MEMB      90              0.0000000000
     10262        90  SAPE      H2R           -26.4576235945      -30.4903737131       15.2873228660  MEMB      90              0.0000000000
     10263        90  SAPE      H2S           -28.1184777882      -31.2297674540       15.6211988271  MEMB      90              0.0000000000
     10264        90  SAPE      C3            -28.9310257068      -33.1069856645       19.4691524698  MEMB      90              0.0000000000
     10265        90  SAPE      HX            -29.0174174065      -33.3486224490       20.5553656528  MEMB      90              0.0000000000
     10266        90  SAPE      HY            -28.0634424787      -33.6332478074       19.0823222586  MEMB      90              0.0000000000
     10267        90  SAPE      O31           -30.1019549273      -33.4159044890       18.6755014908  MEMB      90              0.0000000000
     10268        90  SAPE      C31           -31.1971198453      -33.3053212453       19.3632706690  MEMB      90              0.0000000000
     10269        90  SAPE      O32           -31.3100136631      -33.2065871647       20.5685135101  MEMB      90              0.0000000000
     10270        90  SAPE      C32           -32.3260036171      -33.3202111916       18.3935550790  MEMB      90              0.0000000000
     10271        90  SAPE      H2X           -33.2853195395      -33.4118940700       18.9413856559  MEMB      90              0.0000000000
     10272        90  SAPE      H2Y           -32.2088937163      -34.1523835771       17.6764736143  MEMB      90              0.0000000000
     10273        90  SAPE      C23           -28.5818168949      -29.6662143869       15.5070472870  MEMB      90              0.0000000000
     10274        90  SAPE      H3R           -29.3279775967      -29.8226517412       16.3279888914  MEMB      90              0.0000000000
     10275        90  SAPE      H3S           -29.0715953972      -30.0472567891       14.5560761899  MEMB      90              0.0000000000
     10276        90  SAPE      C24           -27.9780715025      -28.3364203922       15.3319848006  MEMB      90              0.0000000000
     10277        90  SAPE      H4R           -27.3109213248      -28.4223609791       14.4388444100  MEMB      90              0.0000000000
     10278        90  SAPE      H4S           -27.3793511644      -28.0632819772       16.2257700508  MEMB      90              0.0000000000
     10279        90  SAPE      C25           -29.2475019703      -27.6200173361       15.1233366934  MEMB      90              0.0000000000
     10280        90  SAPE      H5R           -29.8016569392      -27.1654294166       15.9511266892  MEMB      90              0.0000000000
     10281        90  SAPE      C26           -29.5099732343      -27.1397171611       13.9625392026  MEMB      90              0.0000000000
     10282        90  SAPE      H6R           -30.3280938193      -26.4281968180       13.9259817703  MEMB      90              0.0000000000
     10283        90  SAPE      C27           -28.6541653560      -27.1784292424       12.7565010703  MEMB      90              0.0000000000
     10284        90  SAPE      H7R           -27.5881021987      -26.7860357740       12.8643290522  MEMB      90              0.0000000000
     10285        90  SAPE      H7S           -29.1698077570      -26.4475475609       12.1708233753  MEMB      90              0.0000000000
     10286        90  SAPE      C28           -28.9279389512      -28.3666808025       11.9892185747  MEMB      90              0.0000000000
     10287        90  SAPE      H8R           -29.9603136242      -28.5922738321       11.7914504709  MEMB      90              0.0000000000
     10288        90  SAPE      C29           -28.0072073657      -29.1149270608       11.5027136091  MEMB      90              0.0000000000
     10289        90  SAPE      H9R           -28.3019022231      -29.8699701777       10.8031671967  MEMB      90              0.0000000000
     10290        90  SAPE      C210          -26.5885545086      -28.8290320472       11.6662558711  MEMB      90              0.0000000000
     10291        90  SAPE      H10R          -25.8487463399      -29.5949893607       11.6227859058  MEMB      90              0.0000000000
     10292        90  SAPE      H10S          -26.2153297062      -28.2626580906       12.5239413360  MEMB      90              0.0000000000
     10293        90  SAPE      C211          -26.2655369931      -28.2023525081       10.4436248177  MEMB      90              0.0000000000
     10294        90  SAPE      H11R          -25.3531504418      -27.8638461286       10.6054285357  MEMB      90              0.0000000000
     10295        90  SAPE      C212          -26.5183825828      -28.1680444053        9.1867811214  MEMB      90              0.0000000000
     10296        90  SAPE      H12R          -25.6830250459      -27.8990466402        8.6538200744  MEMB      90              0.0000000000
     10297        90  SAPE      C213          -27.2186320775      -28.7902376326        8.1700464907  MEMB      90              0.0000000000
     10298        90  SAPE      H13R          -27.0721443662      -29.7125633382        8.5142476066  MEMB      90              0.0000000000
     10299        90  SAPE      H13S          -26.6551179009      -28.7119392915        7.2244188121  MEMB      90              0.0000000000
     10300        90  SAPE      C214          -28.5928329816      -28.3361984933        8.2162247306  MEMB      90              0.0000000000
     10301        90  SAPE      H14R          -29.2438192535      -28.6827961840        8.9766723610  MEMB      90              0.0000000000
     10302        90  SAPE      C215          -29.0458252129      -27.5755204426        7.3004233988  MEMB      90              0.0000000000
     10303        90  SAPE      H15R          -29.9767356660      -27.0386972504        7.3888792983  MEMB      90              0.0000000000
     10304        90  SAPE      C216          -28.1276389177      -27.2017981310        6.2843229632  MEMB      90              0.0000000000
     10305        90  SAPE      H16R          -27.2396838347      -26.8364305342        6.7228406708  MEMB      90              0.0000000000
     10306        90  SAPE      H16S          -28.4833851458      -26.2946707663        6.1092518853  MEMB      90              0.0000000000
     10307        90  SAPE      C217          -28.3110287387      -27.1798980113        4.8469252817  MEMB      90              0.0000000000
     10308        90  SAPE      H17R          -28.0653551672      -26.1986404838        4.3679367509  MEMB      90              0.0000000000
     10309        90  SAPE      H17S          -29.3657945122      -27.2616807571        4.6088987407  MEMB      90              0.0000000000
     10310        90  SAPE      C218          -27.5568223261      -28.3438155999        4.4607744707  MEMB      90              0.0000000000
     10311        90  SAPE      H18R          -28.1963611375      -29.1127706354        4.9434429790  MEMB      90              0.0000000000
     10312        90  SAPE      H18S          -26.5408618372      -28.4205429567        4.8644284432  MEMB      90              0.0000000000
     10313        90  SAPE      C219          -27.6337651935      -28.4021558455        3.0184913026  MEMB      90              0.0000000000
     10314        90  SAPE      H19R          -27.1286104798      -27.6814364469        2.3417529521  MEMB      90              0.0000000000
     10315        90  SAPE      H19S          -28.7251508663      -28.2106487138        3.0077707611  MEMB      90              0.0000000000
     10316        90  SAPE      C220          -27.2346958538      -29.7264265256        2.5524650684  MEMB      90              0.0000000000
     10317        90  SAPE      H20R          -26.1328354689      -29.6860550430        2.6477122057  MEMB      90              0.0000000000
     10318        90  SAPE      H20S          -27.4837308045      -29.9659706575        1.5023898271  MEMB      90              0.0000000000
     10319        90  SAPE      H20T          -27.6649407980      -30.5579746262        3.1155372782  MEMB      90              0.0000000000
     10320        90  SAPE      C33           -32.1408934668      -32.0156939352       17.6699758990  MEMB      90              0.0000000000
     10321        90  SAPE      H3X           -31.3414983512      -32.0855878814       16.8959893438  MEMB      90              0.0000000000
     10322        90  SAPE      H3Y           -32.0278869202      -31.1569987693       18.3607497363  MEMB      90              0.0000000000
     10323        90  SAPE      C34           -33.3324073876      -31.5480831752       16.9802713207  MEMB      90              0.0000000000
     10324        90  SAPE      H4X           -34.0776893282      -31.4344292313       17.7251596460  MEMB      90              0.0000000000
     10325        90  SAPE      H4Y           -33.6620129033      -32.3672538126       16.4650837945  MEMB      90              0.0000000000
     10326        90  SAPE      C35           -32.9583606006      -30.3550853312       16.1410892142  MEMB      90              0.0000000000
     10327        90  SAPE      H5X           -32.1999621729      -30.5956511732       15.3530557428  MEMB      90              0.0000000000
     10328        90  SAPE      H5Y           -33.0251859607      -29.4645407135       16.7781034297  MEMB      90              0.0000000000
     10329        90  SAPE      C36           -33.9769696312      -29.8252677150       15.3020790548  MEMB      90              0.0000000000
     10330        90  SAPE      H6X           -34.7914725551      -29.3489233417       15.9407977685  MEMB      90              0.0000000000
     10331        90  SAPE      H6Y           -34.0617781207      -30.8512221894       14.8608951922  MEMB      90              0.0000000000
     10332        90  SAPE      C37           -33.9632022435      -28.7932469009       14.2926241166  MEMB      90              0.0000000000
     10333        90  SAPE      H7X           -33.9678604169      -27.8558627206       14.8307921411  MEMB      90              0.0000000000
     10334        90  SAPE      H7Y           -35.0577428417      -28.6701497661       14.0745534075  MEMB      90              0.0000000000
     10335        90  SAPE      C38           -33.0124788372      -29.1756646156       13.1297652210  MEMB      90              0.0000000000
     10336        90  SAPE      H8X           -33.1599430636      -30.1810294032       12.7118828275  MEMB      90              0.0000000000
     10337        90  SAPE      H8Y           -32.0500881592      -29.4721643472       13.5676410541  MEMB      90              0.0000000000
     10338        90  SAPE      C39           -33.0545777553      -28.0449769220       12.0365482958  MEMB      90              0.0000000000
     10339        90  SAPE      H9X           -31.9959884821      -27.8925520406       11.8395700107  MEMB      90              0.0000000000
     10340        90  SAPE      H9Y           -33.5432221046      -27.2097370121       12.5990020591  MEMB      90              0.0000000000
     10341        90  SAPE      C310          -33.7909895024      -27.9826606785       10.6335487709  MEMB      90              0.0000000000
     10342        90  SAPE      H10X          -33.7608411748      -26.9831710793       10.1694568882  MEMB      90              0.0000000000
     10343        90  SAPE      H10Y          -34.9049123951      -27.9520603634       10.7900988501  MEMB      90              0.0000000000
     10344        90  SAPE      C311          -33.3687228121      -28.9797647658        9.4904068248  MEMB      90              0.0000000000
     10345        90  SAPE      H11X          -33.9333362469      -28.6652026911        8.6040740513  MEMB      90              0.0000000000
     10346        90  SAPE      H11Y          -33.6101409513      -30.0565313238        9.5362623185  MEMB      90              0.0000000000
     10347        90  SAPE      C312          -31.9615720089      -29.1450909107        9.0808140513  MEMB      90              0.0000000000
     10348        90  SAPE      H12X          -31.3218647794      -29.2599885970        9.9761119212  MEMB      90              0.0000000000
     10349        90  SAPE      H12Y          -31.8143140719      -28.1941141492        8.5540455940  MEMB      90              0.0000000000
     10350        90  SAPE      C313          -31.7961373379      -30.3449704800        8.1365857001  MEMB      90              0.0000000000
     10351        90  SAPE      H13X          -32.5571153374      -31.1367013280        8.3292716461  MEMB      90              0.0000000000
     10352        90  SAPE      H13Y          -30.8490181343      -30.8351417273        8.3985513932  MEMB      90              0.0000000000
     10353        90  SAPE      C314          -31.7546477747      -29.9607642778        6.6417908252  MEMB      90              0.0000000000
     10354        90  SAPE      H14X          -31.0276992860      -29.1482133444        6.5591207988  MEMB      90              0.0000000000
     10355        90  SAPE      H14Y          -32.6804060173      -29.4690295121        6.2766521035  MEMB      90              0.0000000000
     10356        90  SAPE      C315          -31.5563577294      -31.2286396316        5.7626178656  MEMB      90              0.0000000000
     10357        90  SAPE      H15X          -32.3457890918      -32.0102632777        5.8277012493  MEMB      90              0.0000000000
     10358        90  SAPE      H15Y          -30.5631091746      -31.6353379628        6.0242275708  MEMB      90              0.0000000000
     10359        90  SAPE      C316          -31.5364536385      -30.9406509739        4.2962917851  MEMB      90              0.0000000000
     10360        90  SAPE      H16X          -31.2798560751      -29.8590884843        4.4046452521  MEMB      90              0.0000000000
     10361        90  SAPE      H16Y          -32.4870967376      -31.0884669454        3.7306272703  MEMB      90              0.0000000000
     10362        90  SAPE      C317          -30.4676198574      -31.6985988766        3.5076348975  MEMB      90              0.0000000000
     10363        90  SAPE      H17X          -29.5157258812      -31.5959674414        4.0576293731  MEMB      90              0.0000000000
     10364        90  SAPE      H17Y          -30.3264458425      -31.2666942745        2.5118832027  MEMB      90              0.0000000000
     10365        90  SAPE      C318          -30.8414353071      -33.1150610854        3.1801009527  MEMB      90              0.0000000000
     10366        90  SAPE      H18X          -31.5806001728      -33.4222442086        3.9448740287  MEMB      90              0.0000000000
     10367        90  SAPE      H18Y          -29.9535576302      -33.7851625825        3.1888726667  MEMB      90              0.0000000000
     10368        90  SAPE      H18Z          -31.3452782557      -33.2282997770        2.1990931231  MEMB      90              0.0000000000
     10369        91  SOPE      N              35.0043248216      -22.7068345521       19.8279638973  MEMB      91              0.0000000000
     10370        91  SOPE      HN1            35.8224331444      -23.1092052988       19.3529403846  MEMB      91              0.0000000000
     10371        91  SOPE      HN2            34.2158552921      -23.3412831518       19.6127960313  MEMB      91              0.0000000000
     10372        91  SOPE      HN3            34.7806308589      -21.8290223999       19.3025294225  MEMB      91              0.0000000000
     10373        91  SOPE      C12            35.1731627775      -22.4384224794       21.2208461069  MEMB      91              0.0000000000
     10374        91  SOPE      H12A           34.3244038534      -21.7864829749       21.4904750327  MEMB      91              0.0000000000
     10375        91  SOPE      H12B           36.0975843920      -21.8318483695       21.2430837654  MEMB      91              0.0000000000
     10376        91  SOPE      C11            35.1569807584      -23.8085445983       21.9150572074  MEMB      91              0.0000000000
     10377        91  SOPE      H11A           34.1461638090      -24.2631304420       21.8893413055  MEMB      91              0.0000000000
     10378        91  SOPE      H11B           35.3764099082      -23.6293158967       22.9810099064  MEMB      91              0.0000000000
     10379        91  SOPE      P              35.9998702249      -26.2553677493       21.3470834324  MEMB      91              0.0000000000
     10380        91  SOPE      O13            35.9325302205      -26.8540222102       22.6756681248  MEMB      91              0.0000000000
     10381        91  SOPE      O14            37.0429521251      -26.7989223527       20.4464501589  MEMB      91              0.0000000000
     10382        91  SOPE      O12            36.0982540096      -24.7131860004       21.3430695715  MEMB      91              0.0000000000
     10383        91  SOPE      O11            34.5957627398      -26.4657228405       20.8159923237  MEMB      91              0.0000000000
     10384        91  SOPE      C1             34.2253339144      -27.7014002784       20.2552308749  MEMB      91              0.0000000000
     10385        91  SOPE      HA             33.1233265538      -27.7150225719       20.1864105151  MEMB      91              0.0000000000
     10386        91  SOPE      HB             34.3682007595      -28.4741427890       20.9973019747  MEMB      91              0.0000000000
     10387        91  SOPE      C2             34.9746016399      -28.0177947667       18.9155807783  MEMB      91              0.0000000000
     10388        91  SOPE      HS             35.9546735946      -28.1080089272       18.6653419495  MEMB      91              0.0000000000
     10389        91  SOPE      O21            35.4268345435      -26.6875297742       18.3351964608  MEMB      91              0.0000000000
     10390        91  SOPE      C21            35.5773814358      -25.5790378124       17.2348784705  MEMB      91              0.0000000000
     10391        91  SOPE      O22            36.7144433809      -25.5137596544       16.8968233433  MEMB      91              0.0000000000
     10392        91  SOPE      C22            34.1603466197      -24.6450735722       16.2958883345  MEMB      91              0.0000000000
     10393        91  SOPE      H2R            34.6562652889      -24.2736344844       15.5202190427  MEMB      91              0.0000000000
     10394        91  SOPE      H2S            34.0813155212      -24.0768109871       17.0792252918  MEMB      91              0.0000000000
     10395        91  SOPE      C3             33.9593367574      -29.2451745904       18.1484907646  MEMB      91              0.0000000000
     10396        91  SOPE      HX             32.8900896209      -29.3522933349       18.3537693628  MEMB      91              0.0000000000
     10397        91  SOPE      HY             34.1134989946      -30.0478098623       18.8588000702  MEMB      91              0.0000000000
     10398        91  SOPE      O31            34.1291749080      -29.9013515541       16.8428248371  MEMB      91              0.0000000000
     10399        91  SOPE      C31            35.3324367429      -29.8367675865       16.5802864354  MEMB      91              0.0000000000
     10400        91  SOPE      O32            36.2308918081      -29.5336538929       17.3050557771  MEMB      91              0.0000000000
     10401        91  SOPE      C32            35.7486497157      -29.9063993031       15.2229149369  MEMB      91              0.0000000000
     10402        91  SOPE      H2X            36.2696606036      -28.9241864679       15.0953276040  MEMB      91              0.0000000000
     10403        91  SOPE      H2Y            35.1257500743      -30.2425568212       14.4147826433  MEMB      91              0.0000000000
     10404        91  SOPE      C23            32.5514685759      -24.9255735347       15.5819379286  MEMB      91              0.0000000000
     10405        91  SOPE      H3R            31.6989633134      -24.2034492308       15.6145305382  MEMB      91              0.0000000000
     10406        91  SOPE      H3S            31.6854256857      -25.5724644118       15.8998573963  MEMB      91              0.0000000000
     10407        91  SOPE      C24            32.8145307588      -25.7875422999       14.3889796404  MEMB      91              0.0000000000
     10408        91  SOPE      H4R            33.4205918757      -26.7138505026       14.5586346796  MEMB      91              0.0000000000
     10409        91  SOPE      H4S            31.8746648388      -26.1165463393       13.9745129722  MEMB      91              0.0000000000
     10410        91  SOPE      C25            33.8961625042      -25.4530833745       13.5216468852  MEMB      91              0.0000000000
     10411        91  SOPE      H5R            33.4698814583      -24.4782387716       13.2479479297  MEMB      91              0.0000000000
     10412        91  SOPE      H5S            34.8516703489      -25.4322371886       14.1092385216  MEMB      91              0.0000000000
     10413        91  SOPE      C26            33.9508825000      -26.5790523648       12.5124089772  MEMB      91              0.0000000000
     10414        91  SOPE      H6R            34.1976073993      -27.5912317241       12.9420739070  MEMB      91              0.0000000000
     10415        91  SOPE      H6S            32.9397313931      -26.6919408728       12.0549842609  MEMB      91              0.0000000000
     10416        91  SOPE      C27            34.9591582060      -26.1675562020       11.4917236747  MEMB      91              0.0000000000
     10417        91  SOPE      H7R            34.8888010694      -25.0810929539       11.3137644534  MEMB      91              0.0000000000
     10418        91  SOPE      H7S            35.9785329322      -26.4461951736       11.8487612520  MEMB      91              0.0000000000
     10419        91  SOPE      C28            34.6363277773      -26.8688655413       10.2134740635  MEMB      91              0.0000000000
     10420        91  SOPE      H8R            34.8068007814      -27.8568173724       10.5891972460  MEMB      91              0.0000000000
     10421        91  SOPE      H8S            33.5678952987      -26.7663273722        9.9272724018  MEMB      91              0.0000000000
     10422        91  SOPE      C29            35.6278835316      -26.7117420720        9.1244592604  MEMB      91              0.0000000000
     10423        91  SOPE      H91            36.6331627037      -26.4558602543        9.4917483647  MEMB      91              0.0000000000
     10424        91  SOPE      C210           35.3530431053      -26.7288250262        7.8105420586  MEMB      91              0.0000000000
     10425        91  SOPE      H101           36.1874174927      -26.6408208769        7.1080651174  MEMB      91              0.0000000000
     10426        91  SOPE      C211           34.0002395912      -26.8997177632        7.1444473000  MEMB      91              0.0000000000
     10427        91  SOPE      H11R           33.8432196188      -26.1022444548        6.4176329217  MEMB      91              0.0000000000
     10428        91  SOPE      H11S           33.1740323381      -26.9353837403        7.9002331313  MEMB      91              0.0000000000
     10429        91  SOPE      C212           33.8378547303      -28.0470361544        6.1593161230  MEMB      91              0.0000000000
     10430        91  SOPE      H12R           34.8372855208      -28.4104669325        5.8187072648  MEMB      91              0.0000000000
     10431        91  SOPE      H12S           33.0090707535      -28.2170260326        5.4436563684  MEMB      91              0.0000000000
     10432        91  SOPE      C213           33.1702788759      -29.0971183880        6.8556107912  MEMB      91              0.0000000000
     10433        91  SOPE      H13R           32.2447337840      -29.1107300859        7.2490212040  MEMB      91              0.0000000000
     10434        91  SOPE      H13S           33.8586968360      -28.9021089100        7.7516482954  MEMB      91              0.0000000000
     10435        91  SOPE      C214           32.9906901049      -30.3403311507        5.8913783504  MEMB      91              0.0000000000
     10436        91  SOPE      H14R           33.0551765743      -31.3349488122        6.4509474269  MEMB      91              0.0000000000
     10437        91  SOPE      H14S           33.9253967769      -30.0478730785        5.3362346576  MEMB      91              0.0000000000
     10438        91  SOPE      C215           32.0835171825      -31.6382046374        5.6987224571  MEMB      91              0.0000000000
     10439        91  SOPE      H15R           31.6903222467      -30.7813890375        5.1598365175  MEMB      91              0.0000000000
     10440        91  SOPE      H15S           31.4755620185      -32.0331343164        6.5751632269  MEMB      91              0.0000000000
     10441        91  SOPE      C216           32.5076300334      -32.9369794991        4.8380446509  MEMB      91              0.0000000000
     10442        91  SOPE      H16R           32.9969359386      -32.5580129447        3.9296333435  MEMB      91              0.0000000000
     10443        91  SOPE      H16S           31.5451408416      -33.3316909202        4.4709186260  MEMB      91              0.0000000000
     10444        91  SOPE      C217           33.3754496940      -34.1918093299        5.3580205771  MEMB      91              0.0000000000
     10445        91  SOPE      H17R           32.7564564393      -34.8639070189        5.9063445626  MEMB      91              0.0000000000
     10446        91  SOPE      H17S           34.2048898852      -34.1310362361        6.1076069101  MEMB      91              0.0000000000
     10447        91  SOPE      C218           34.1521167375      -34.9663624875        4.3388666196  MEMB      91              0.0000000000
     10448        91  SOPE      H18R           33.4656115741      -35.2617086306        3.6451630961  MEMB      91              0.0000000000
     10449        91  SOPE      H18S           34.9547683612      -35.6185337076        4.7909612357  MEMB      91              0.0000000000
     10450        91  SOPE      H18T           34.6174670816      -34.4195008832        3.5723240696  MEMB      91              0.0000000000
     10451        91  SOPE      C33            36.7129399856      -30.9407077183       15.0504503714  MEMB      91              0.0000000000
     10452        91  SOPE      H3X            37.0530143387      -31.7389119173       15.7282182116  MEMB      91              0.0000000000
     10453        91  SOPE      H3Y            37.3400215444      -30.8697810129       15.9810436013  MEMB      91              0.0000000000
     10454        91  SOPE      C34            37.1509495976      -30.9075439595       13.4815678094  MEMB      91              0.0000000000
     10455        91  SOPE      H4X            36.6266516177      -31.7032071803       12.9615314855  MEMB      91              0.0000000000
     10456        91  SOPE      H4Y            38.2204336744      -31.1146569426       13.2770664553  MEMB      91              0.0000000000
     10457        91  SOPE      C35            37.2155437908      -29.9252046735       12.3656769776  MEMB      91              0.0000000000
     10458        91  SOPE      H5X            37.9853003234      -29.2138758184       12.3542930887  MEMB      91              0.0000000000
     10459        91  SOPE      H5Y            36.6284701493      -29.0320276617       12.4010587996  MEMB      91              0.0000000000
     10460        91  SOPE      C36            37.9725097642      -30.5615573787       11.2107399437  MEMB      91              0.0000000000
     10461        91  SOPE      H6X            39.0530913925      -30.8708347554       11.2026893572  MEMB      91              0.0000000000
     10462        91  SOPE      H6Y            37.9085488517      -29.7315203900       10.5637106096  MEMB      91              0.0000000000
     10463        91  SOPE      C37            37.0307670786      -31.1814465373       10.3564893697  MEMB      91              0.0000000000
     10464        91  SOPE      H7X            36.2567566001      -30.4280424403       10.3212697776  MEMB      91              0.0000000000
     10465        91  SOPE      H7Y            36.7326603652      -31.9247879052       11.0354102892  MEMB      91              0.0000000000
     10466        91  SOPE      C38            37.5085780510      -31.6667132714        9.0441903941  MEMB      91              0.0000000000
     10467        91  SOPE      H8X            36.7741836110      -32.4548901415        8.7881558466  MEMB      91              0.0000000000
     10468        91  SOPE      H8Y            38.4906455140      -32.1314549807        9.1558436388  MEMB      91              0.0000000000
     10469        91  SOPE      C39            37.6444021359      -30.5820032629        7.9868323319  MEMB      91              0.0000000000
     10470        91  SOPE      H9X            37.5803752936      -29.5877303794        8.4034343700  MEMB      91              0.0000000000
     10471        91  SOPE      H9Y            36.8275224596      -30.2628796010        7.4494937349  MEMB      91              0.0000000000
     10472        91  SOPE      C310           38.3645732346      -31.0402502765        6.7443154702  MEMB      91              0.0000000000
     10473        91  SOPE      H10X           38.3012492076      -32.1493568506        6.6757803673  MEMB      91              0.0000000000
     10474        91  SOPE      H10Y           39.3225677886      -30.8876454866        6.9715122830  MEMB      91              0.0000000000
     10475        91  SOPE      C311           38.1388412861      -30.3227150847        5.3777721967  MEMB      91              0.0000000000
     10476        91  SOPE      H11X           37.2492691607      -30.5666161488        4.7672638152  MEMB      91              0.0000000000
     10477        91  SOPE      H11Y           38.9412966788      -30.6866518631        4.7337454761  MEMB      91              0.0000000000
     10478        91  SOPE      C312           37.9485677621      -28.8405296918        5.4187196118  MEMB      91              0.0000000000
     10479        91  SOPE      H12X           38.7316751990      -28.3976172616        6.0416701381  MEMB      91              0.0000000000
     10480        91  SOPE      H12Y           36.9761008056      -28.5431480795        5.8822144399  MEMB      91              0.0000000000
     10481        91  SOPE      C313           37.8988833045      -28.3593046350        3.9826812291  MEMB      91              0.0000000000
     10482        91  SOPE      H13X           37.2408038398      -29.0342748927        3.3966191802  MEMB      91              0.0000000000
     10483        91  SOPE      H13Y           38.8977734084      -28.3938410736        3.4773763631  MEMB      91              0.0000000000
     10484        91  SOPE      C314           37.2207387466      -27.0156803924        4.0249260228  MEMB      91              0.0000000000
     10485        91  SOPE      H14X           38.0666958900      -26.3422464305        4.3838419705  MEMB      91              0.0000000000
     10486        91  SOPE      H14Y           36.4236912053      -26.8399182667        4.7381908629  MEMB      91              0.0000000000
     10487        91  SOPE      C315           36.5648674524      -26.5797579759        2.7101447569  MEMB      91              0.0000000000
     10488        91  SOPE      H15X           37.2968167260      -26.8445765328        1.9130464202  MEMB      91              0.0000000000
     10489        91  SOPE      H15Y           36.3104591387      -25.4840614940        2.8748645416  MEMB      91              0.0000000000
     10490        91  SOPE      C316           35.4407948999      -26.8877979211        1.8734788806  MEMB      91              0.0000000000
     10491        91  SOPE      H16X           35.2680371306      -25.9183695516        1.2940420806  MEMB      91              0.0000000000
     10492        91  SOPE      H16Y           34.7741754628      -27.0783333790        2.7165341633  MEMB      91              0.0000000000
     10493        91  SOPE      C317           35.8228638753      -27.8948333252        0.8166522042  MEMB      91              0.0000000000
     10494        91  SOPE      H17X           35.7655604267      -28.8747559131        1.3173060145  MEMB      91              0.0000000000
     10495        91  SOPE      H17Y           36.8445049796      -27.8160655963        0.3599060986  MEMB      91              0.0000000000
     10496        91  SOPE      C318           34.9179712020      -27.6393201656       -0.3477856809  MEMB      91              0.0000000000
     10497        91  SOPE      H18X           34.9071323517      -28.5491516661       -0.9505817152  MEMB      91              0.0000000000
     10498        91  SOPE      H18Y           35.3207622983      -26.7881668855       -0.9426402635  MEMB      91              0.0000000000
     10499        91  SOPE      H18Z           33.9024723610      -27.3599878127       -0.0034949602  MEMB      91              0.0000000000
     10500        92  SAPC      N              35.1945001715       24.9181724145       21.9453434461  MEMB      92              0.0000000000
     10501        92  SAPC      C12            34.8214174616       24.2923771881       20.6474755231  MEMB      92              0.0000000000
     10502        92  SAPC      H12A           34.5703967761       23.2552755668       20.8415163136  MEMB      92              0.0000000000
     10503        92  SAPC      H12B           35.6954832168       24.2756646192       19.9869042693  MEMB      92              0.0000000000
     10504        92  SAPC      C13            34.1437996687       24.8573805712       22.9899615208  MEMB      92              0.0000000000
     10505        92  SAPC      H13A           33.2477144247       25.3223564014       22.6111921287  MEMB      92              0.0000000000
     10506        92  SAPC      H13B           33.9359156991       23.8241438573       23.2758266852  MEMB      92              0.0000000000
     10507        92  SAPC      H13C           34.5024224053       25.3800179768       23.8704333394  MEMB      92              0.0000000000
     10508        92  SAPC      C14            36.1918060122       24.0786088773       22.4415386586  MEMB      92              0.0000000000
     10509        92  SAPC      H14A           36.0424615140       23.0022293591       22.4986624539  MEMB      92              0.0000000000
     10510        92  SAPC      H14B           37.1040646063       24.2253898780       21.8663564406  MEMB      92              0.0000000000
     10511        92  SAPC      H14C           36.3738784506       24.4040020992       23.4760508544  MEMB      92              0.0000000000
     10512        92  SAPC      C15            35.6768148248       26.3303525802       21.7390391548  MEMB      92              0.0000000000
     10513        92  SAPC      H15A           34.9019243408       26.8135962015       21.1188299693  MEMB      92              0.0000000000
     10514        92  SAPC      H15B           35.7886542790       26.9182015710       22.6414365927  MEMB      92              0.0000000000
     10515        92  SAPC      H15C           36.5685977550       26.3944537884       21.1176854854  MEMB      92              0.0000000000
     10516        92  SAPC      C11            33.6874397481       24.9554027480       19.8740824923  MEMB      92              0.0000000000
     10517        92  SAPC      H11A           32.7820316600       25.0485487129       20.5126200626  MEMB      92              0.0000000000
     10518        92  SAPC      H11B           33.4485217331       24.2413415124       19.0536839497  MEMB      92              0.0000000000
     10519        92  SAPC      P              34.7754091173       26.2934102269       17.9482632662  MEMB      92              0.0000000000
     10520        92  SAPC      O13            36.1419942170       25.7602241786       18.1784852159  MEMB      92              0.0000000000
     10521        92  SAPC      O14            33.9853957538       25.6712497051       16.8618821787  MEMB      92              0.0000000000
     10522        92  SAPC      O12            34.0531566752       26.2419859937       19.3720740736  MEMB      92              0.0000000000
     10523        92  SAPC      O11            34.9350488125       27.8349714649       17.6943338647  MEMB      92              0.0000000000
     10524        92  SAPC      C1             35.7135149231       28.6023550387       18.6096082872  MEMB      92              0.0000000000
     10525        92  SAPC      HA             35.0313890101       29.1080304559       19.3052451885  MEMB      92              0.0000000000
     10526        92  SAPC      HB             36.4181801865       27.9981874672       19.2264955833  MEMB      92              0.0000000000
     10527        92  SAPC      C2             36.6452776255       29.5898764524       17.8648585115  MEMB      92              0.0000000000
     10528        92  SAPC      HS             37.1856207944       30.2338472967       18.5921047949  MEMB      92              0.0000000000
     10529        92  SAPC      O21            36.0316169750       30.4346587810       16.8340198844  MEMB      92              0.0000000000
     10530        92  SAPC      C21            34.9799753001       31.0402150627       17.2407296164  MEMB      92              0.0000000000
     10531        92  SAPC      O22            34.5596353921       30.9847025809       18.3610673517  MEMB      92              0.0000000000
     10532        92  SAPC      C22            34.3380280479       32.0436593128       16.2849401116  MEMB      92              0.0000000000
     10533        92  SAPC      H2R            34.0323784669       32.9920719018       16.7880360260  MEMB      92              0.0000000000
     10534        92  SAPC      H2S            35.0533982903       32.3225845945       15.5093285703  MEMB      92              0.0000000000
     10535        92  SAPC      C3             37.6347848239       28.6701106598       17.1684545642  MEMB      92              0.0000000000
     10536        92  SAPC      HX             37.9907279715       27.8259177243       17.7782945082  MEMB      92              0.0000000000
     10537        92  SAPC      HY             38.6695634274       29.0389279798       17.0621760795  MEMB      92              0.0000000000
     10538        92  SAPC      O31            36.9760720887       28.4724368743       15.8678631695  MEMB      92              0.0000000000
     10539        92  SAPC      C31            37.4639913143       27.4886289917       15.3017854431  MEMB      92              0.0000000000
     10540        92  SAPC      O32            38.4824611645       26.9678245934       15.6766116671  MEMB      92              0.0000000000
     10541        92  SAPC      C32            36.6186418267       26.9860569657       14.1689727675  MEMB      92              0.0000000000
     10542        92  SAPC      H2X            36.2136573187       27.7732175297       13.5257658818  MEMB      92              0.0000000000
     10543        92  SAPC      H2Y            35.9492594548       26.2870186003       14.6809715065  MEMB      92              0.0000000000
     10544        92  SAPC      C23            33.0846781796       31.3735439581       15.7469418950  MEMB      92              0.0000000000
     10545        92  SAPC      H3R            32.6708945578       32.0433901763       14.9652211935  MEMB      92              0.0000000000
     10546        92  SAPC      H3S            32.3151191853       31.2617976617       16.5560163798  MEMB      92              0.0000000000
     10547        92  SAPC      C24            33.4490453449       30.0273333277       15.1042812728  MEMB      92              0.0000000000
     10548        92  SAPC      H4R            32.5388862133       29.5404019657       14.7645229845  MEMB      92              0.0000000000
     10549        92  SAPC      H4S            33.8694994869       29.3181109580       15.8507309964  MEMB      92              0.0000000000
     10550        92  SAPC      C25            34.4704999048       30.1776618427       14.0120938273  MEMB      92              0.0000000000
     10551        92  SAPC      H5R            35.4129688186       30.5576339082       14.3504256312  MEMB      92              0.0000000000
     10552        92  SAPC      C26            34.4971163622       29.7441377218       12.7523089560  MEMB      92              0.0000000000
     10553        92  SAPC      H6R            35.3317291340       29.8915325208       12.0904385800  MEMB      92              0.0000000000
     10554        92  SAPC      C27            33.5315179706       28.9833916345       12.0343122839  MEMB      92              0.0000000000
     10555        92  SAPC      H7R            33.4826828992       29.4553244123       11.0497263802  MEMB      92              0.0000000000
     10556        92  SAPC      H7S            32.6975203379       29.3174915707       12.6358817649  MEMB      92              0.0000000000
     10557        92  SAPC      C28            33.8216658788       27.4893775905       12.0243216601  MEMB      92              0.0000000000
     10558        92  SAPC      H8R            33.8514024979       27.0583300315       13.0401046088  MEMB      92              0.0000000000
     10559        92  SAPC      C29            33.7781962629       26.6160977493       10.9822158071  MEMB      92              0.0000000000
     10560        92  SAPC      H9R            33.6211285596       25.5636820670       11.1952849687  MEMB      92              0.0000000000
     10561        92  SAPC      C210           33.4312962254       26.8581256045        9.5466072277  MEMB      92              0.0000000000
     10562        92  SAPC      H10R           32.8625655791       27.6854600804        9.7561545449  MEMB      92              0.0000000000
     10563        92  SAPC      H10S           32.6146752101       26.2089734526        9.1113331966  MEMB      92              0.0000000000
     10564        92  SAPC      C211           34.0867051578       27.8473399976        8.7009684976  MEMB      92              0.0000000000
     10565        92  SAPC      H11R           34.4939683316       28.6986365923        9.2768985916  MEMB      92              0.0000000000
     10566        92  SAPC      C212           33.9611808120       27.9132184276        7.3851920284  MEMB      92              0.0000000000
     10567        92  SAPC      H12R           34.8018751794       28.4156354869        6.9228758667  MEMB      92              0.0000000000
     10568        92  SAPC      C213           33.1655565632       27.0194838011        6.4703747254  MEMB      92              0.0000000000
     10569        92  SAPC      H13R           32.6876449443       26.1420935113        6.9775015549  MEMB      92              0.0000000000
     10570        92  SAPC      H13S           33.8945343642       26.5871801405        5.7780031035  MEMB      92              0.0000000000
     10571        92  SAPC      C214           32.1563422499       27.7210777470        5.6198899636  MEMB      92              0.0000000000
     10572        92  SAPC      H14R           31.1727349982       27.5093693981        5.9280979455  MEMB      92              0.0000000000
     10573        92  SAPC      C215           32.2588442446       28.5091104795        4.5517519579  MEMB      92              0.0000000000
     10574        92  SAPC      H15R           31.3680656560       28.9362174517        4.0829903763  MEMB      92              0.0000000000
     10575        92  SAPC      C216           33.5008823005       28.9240568293        3.8890610888  MEMB      92              0.0000000000
     10576        92  SAPC      H16R           34.3705265417       28.4110356164        4.3388178480  MEMB      92              0.0000000000
     10577        92  SAPC      H16S           33.5564318115       29.9669695041        4.2022638056  MEMB      92              0.0000000000
     10578        92  SAPC      C217           33.4795553225       28.6648881054        2.3706482344  MEMB      92              0.0000000000
     10579        92  SAPC      H17R           34.3052007391       29.1813421440        1.8324137356  MEMB      92              0.0000000000
     10580        92  SAPC      H17S           32.5431751784       29.0327351550        1.8945031819  MEMB      92              0.0000000000
     10581        92  SAPC      C218           33.7180509960       27.1678864437        2.1404194864  MEMB      92              0.0000000000
     10582        92  SAPC      H18R           32.9292603231       26.5683432773        2.6359284268  MEMB      92              0.0000000000
     10583        92  SAPC      H18S           34.6989048467       26.9027038637        2.5985719369  MEMB      92              0.0000000000
     10584        92  SAPC      C219           33.8308000355       26.7572042368        0.6879081685  MEMB      92              0.0000000000
     10585        92  SAPC      H19R           34.1913017094       25.7141717002        0.6038506732  MEMB      92              0.0000000000
     10586        92  SAPC      H19S           34.6345408995       27.3395763746        0.2668663364  MEMB      92              0.0000000000
     10587        92  SAPC      C220           32.5751629532       26.9363460413       -0.1257236296  MEMB      92              0.0000000000
     10588        92  SAPC      H20R           32.6738238815       26.5019837806       -1.1452526237  MEMB      92              0.0000000000
     10589        92  SAPC      H20S           32.1495757429       27.9384044750       -0.1679032567  MEMB      92              0.0000000000
     10590        92  SAPC      H20T           31.8187766105       26.4637562004        0.4822979003  MEMB      92              0.0000000000
     10591        92  SAPC      C33            37.2165900704       26.0323921869       13.2397445208  MEMB      92              0.0000000000
     10592        92  SAPC      H3X            36.7057316715       25.0626377187       13.0211740316  MEMB      92              0.0000000000
     10593        92  SAPC      H3Y            38.0553208733       25.7933623635       13.8615939736  MEMB      92              0.0000000000
     10594        92  SAPC      C34            37.6043955684       26.7671897568       12.0134329526  MEMB      92              0.0000000000
     10595        92  SAPC      H4X            38.0837224225       25.7750639451       12.0206645528  MEMB      92              0.0000000000
     10596        92  SAPC      H4Y            38.3550827005       27.5580108019       12.0507342232  MEMB      92              0.0000000000
     10597        92  SAPC      C35            37.0462465439       26.6738825049       10.5988661752  MEMB      92              0.0000000000
     10598        92  SAPC      H5X            36.2826287846       27.4465250747       10.5974045065  MEMB      92              0.0000000000
     10599        92  SAPC      H5Y            36.8876988903       25.5958396467       10.3615364352  MEMB      92              0.0000000000
     10600        92  SAPC      C36            37.8893221785       27.1264161126        9.4210906940  MEMB      92              0.0000000000
     10601        92  SAPC      H6X            38.5457669219       26.3029780799        9.2701995436  MEMB      92              0.0000000000
     10602        92  SAPC      H6Y            38.5141503231       27.9998781883        9.6521550261  MEMB      92              0.0000000000
     10603        92  SAPC      C37            37.5016311101       26.9174729347        7.9707456723  MEMB      92              0.0000000000
     10604        92  SAPC      H7X            38.2053111462       27.4544817922        7.3208371162  MEMB      92              0.0000000000
     10605        92  SAPC      H7Y            36.4974962560       27.3175599466        7.8805780906  MEMB      92              0.0000000000
     10606        92  SAPC      C38            37.5733913412       25.4638737239        7.4909622017  MEMB      92              0.0000000000
     10607        92  SAPC      H8X            37.3886894727       24.8282147361        8.3807195114  MEMB      92              0.0000000000
     10608        92  SAPC      H8Y            38.5446095253       25.1377563940        7.0372723606  MEMB      92              0.0000000000
     10609        92  SAPC      C39            36.4015999707       25.2477857162        6.5550858028  MEMB      92              0.0000000000
     10610        92  SAPC      H9X            35.5057582797       25.5299813683        7.1363204100  MEMB      92              0.0000000000
     10611        92  SAPC      H9Y            36.3439151534       24.1829528005        6.2723476054  MEMB      92              0.0000000000
     10612        92  SAPC      C310           36.3691398555       26.1343834484        5.3371507547  MEMB      92              0.0000000000
     10613        92  SAPC      H10X           36.1157903154       27.1942760173        5.6028116564  MEMB      92              0.0000000000
     10614        92  SAPC      H10Y           35.5821275512       25.7949917218        4.6284675354  MEMB      92              0.0000000000
     10615        92  SAPC      C311           37.7163904635       26.1248611543        4.6954832497  MEMB      92              0.0000000000
     10616        92  SAPC      H11X           38.0889662405       25.1603777114        4.3246487964  MEMB      92              0.0000000000
     10617        92  SAPC      H11Y           38.4352451582       26.6334028551        5.3762061267  MEMB      92              0.0000000000
     10618        92  SAPC      C312           37.6403489968       26.9441825487        3.5232755603  MEMB      92              0.0000000000
     10619        92  SAPC      H12X           36.8792504878       27.7204190909        3.8716948323  MEMB      92              0.0000000000
     10620        92  SAPC      H12Y           37.2080362412       26.4448505195        2.6323710159  MEMB      92              0.0000000000
     10621        92  SAPC      C313           39.0824737831       27.4770330458        3.1948924063  MEMB      92              0.0000000000
     10622        92  SAPC      H13X           39.6660476156       26.9614557869        2.4946973044  MEMB      92              0.0000000000
     10623        92  SAPC      H13Y           39.5096664283       27.5086845699        4.1804316987  MEMB      92              0.0000000000
     10624        92  SAPC      C314           39.5202624711       28.7963061522        2.3246505093  MEMB      92              0.0000000000
     10625        92  SAPC      H14X           40.3802197585       29.2412730945        2.1925096073  MEMB      92              0.0000000000
     10626        92  SAPC      H14Y           38.9219917171       29.0384904896        3.4006712596  MEMB      92              0.0000000000
     10627        92  SAPC      C315           38.4482299090       29.9688279483        0.5311404626  MEMB      92              0.0000000000
     10628        92  SAPC      H15X           38.0779570951       31.0953395851        0.6683226993  MEMB      92              0.0000000000
     10629        92  SAPC      H15Y           37.1194160755       29.5122256213        0.3837249122  MEMB      92              0.0000000000
     10630        92  SAPC      C316           39.0017328417       29.9977364137       -0.6095643920  MEMB      92              0.0000000000
     10631        92  SAPC      H16X           39.8869363169       29.3193575969       -0.2581510147  MEMB      92              0.0000000000
     10632        92  SAPC      H16Y           39.9723251724       30.3837609507       -0.5518095702  MEMB      92              0.0000000000
     10633        92  SAPC      C317           37.8409559605       29.4899447172       -1.7846393207  MEMB      92              0.0000000000
     10634        92  SAPC      H17X           37.1837683841       28.3277545051       -2.0301327601  MEMB      92              0.0000000000
     10635        92  SAPC      H17Y           38.3207494492       29.5402740359       -2.7717357510  MEMB      92              0.0000000000
     10636        92  SAPC      C318           37.4637932743       30.5017429662       -1.2612025008  MEMB      92              0.0000000000
     10637        92  SAPC      H18X           37.6477418772       31.4470274924       -1.4531614205  MEMB      92              0.0000000000
     10638        92  SAPC      H18Y           36.5782095082       30.6826158151       -0.6757356917  MEMB      92              0.0000000000
     10639        92  SAPC      H18Z           36.9113710374       29.8664375998       -1.8438254351  MEMB      92              0.0000000000
     10640        93  CHL1      C3             28.1896136169      -36.2228467732       17.3824264111  MEMB      93              0.0000000000
     10641        93  CHL1      H3             27.9003588523      -37.2940401578       17.2053216409  MEMB      93              0.0000000000
     10642        93  CHL1      O3             28.4674091005      -35.9605749850       18.7245390158  MEMB      93              0.0000000000
     10643        93  CHL1      H3'            27.7385223000      -36.3431771146       19.2535606096  MEMB      93              0.0000000000
     10644        93  CHL1      C4             29.3350782901      -35.7979733135       16.5487207290  MEMB      93              0.0000000000
     10645        93  CHL1      H4A            29.6044279060      -34.7862582630       16.9373906655  MEMB      93              0.0000000000
     10646        93  CHL1      H4B            30.0592534659      -36.5516904908       16.8091868258  MEMB      93              0.0000000000
     10647        93  CHL1      C5             29.1823191530      -35.7646829199       15.0568432174  MEMB      93              0.0000000000
     10648        93  CHL1      C6             29.8776575006      -36.5652339856       14.2642676633  MEMB      93              0.0000000000
     10649        93  CHL1      H6             30.6180312588      -37.2240083767       14.7173906287  MEMB      93              0.0000000000
     10650        93  CHL1      C7             29.8389840953      -36.5215880455       12.7857301061  MEMB      93              0.0000000000
     10651        93  CHL1      H7A            30.8622370188      -36.5462956147       12.3509401422  MEMB      93              0.0000000000
     10652        93  CHL1      H7B            29.2672429093      -37.3901341505       12.4116264539  MEMB      93              0.0000000000
     10653        93  CHL1      C8             29.1359676422      -35.2706415222       12.2881557603  MEMB      93              0.0000000000
     10654        93  CHL1      H8             29.7619883859      -34.4014812283       12.4497515279  MEMB      93              0.0000000000
     10655        93  CHL1      C14            28.8718489728      -35.4898714613       10.8261333364  MEMB      93              0.0000000000
     10656        93  CHL1      H14            28.2339282479      -36.3995259247       10.8588305619  MEMB      93              0.0000000000
     10657        93  CHL1      C15            30.0131839459      -35.7698078154        9.8609098459  MEMB      93              0.0000000000
     10658        93  CHL1      H15A           30.7549994205      -34.9698543705       10.0256530216  MEMB      93              0.0000000000
     10659        93  CHL1      H15B           30.4604894305      -36.7591221777        9.9318579585  MEMB      93              0.0000000000
     10660        93  CHL1      C16            29.4875545082      -35.5551226855        8.4738417889  MEMB      93              0.0000000000
     10661        93  CHL1      H16A           30.0937153364      -34.8104971991        7.9162890269  MEMB      93              0.0000000000
     10662        93  CHL1      H16B           29.3652394512      -36.4442158375        7.8498023921  MEMB      93              0.0000000000
     10663        93  CHL1      C17            28.2194089483      -34.8877573294        8.7009935563  MEMB      93              0.0000000000
     10664        93  CHL1      H17            27.4393623851      -35.5491436377        8.6632854825  MEMB      93              0.0000000000
     10665        93  CHL1      C13            28.1819075803      -34.3711755846       10.1506996438  MEMB      93              0.0000000000
     10666        93  CHL1      C18            28.9783740545      -33.1175172534       10.1048360125  MEMB      93              0.0000000000
     10667        93  CHL1      H18A           29.1590672889      -32.6299457298       11.0455283967  MEMB      93              0.0000000000
     10668        93  CHL1      H18B           29.8473237213      -33.2009294096        9.4756326661  MEMB      93              0.0000000000
     10669        93  CHL1      H18C           28.4729586377      -32.3975948848        9.4962128936  MEMB      93              0.0000000000
     10670        93  CHL1      C12            26.9634435778      -34.2065848566       10.9638199564  MEMB      93              0.0000000000
     10671        93  CHL1      H12A           26.0973955727      -33.7465273897       10.5509865435  MEMB      93              0.0000000000
     10672        93  CHL1      H12B           26.6009838826      -35.2515142089       10.9668610354  MEMB      93              0.0000000000
     10673        93  CHL1      C11            27.3170431871      -33.6746169725       12.3523768105  MEMB      93              0.0000000000
     10674        93  CHL1      H11A           27.8315205659      -32.7232612568       12.3680518063  MEMB      93              0.0000000000
     10675        93  CHL1      H11B           26.5237144900      -33.1025614127       12.8568325547  MEMB      93              0.0000000000
     10676        93  CHL1      C9             27.8689440365      -34.9446503392       13.0546349562  MEMB      93              0.0000000000
     10677        93  CHL1      H9             27.2260193348      -35.8517640657       12.8976404047  MEMB      93              0.0000000000
     10678        93  CHL1      C10            28.1175736556      -34.8474573913       14.5551765230  MEMB      93              0.0000000000
     10679        93  CHL1      C19            28.0987887373      -33.3918089371       14.9155731448  MEMB      93              0.0000000000
     10680        93  CHL1      H19A           27.1367545990      -32.8834880305       14.9408508818  MEMB      93              0.0000000000
     10681        93  CHL1      H19B           28.5854895059      -33.2026550462       15.8922299962  MEMB      93              0.0000000000
     10682        93  CHL1      H19C           28.6529101800      -32.9197431021       14.1002771824  MEMB      93              0.0000000000
     10683        93  CHL1      C1             27.0941306687      -35.4363364793       15.4155740725  MEMB      93              0.0000000000
     10684        93  CHL1      H1A            26.2618471865      -34.8039997170       15.4762298071  MEMB      93              0.0000000000
     10685        93  CHL1      H1B            26.7238754488      -36.3914238359       14.9529221285  MEMB      93              0.0000000000
     10686        93  CHL1      C2             27.2197621470      -35.2322301634       16.9682892309  MEMB      93              0.0000000000
     10687        93  CHL1      H2A            26.3833519243      -35.3911042414       17.6424338757  MEMB      93              0.0000000000
     10688        93  CHL1      H2B            27.2513594730      -34.1810597570       17.2731196138  MEMB      93              0.0000000000
     10689        93  CHL1      C20            28.0591501811      -34.0692909602        7.5105524657  MEMB      93              0.0000000000
     10690        93  CHL1      H20            28.7288177020      -33.1822202602        7.5805917508  MEMB      93              0.0000000000
     10691        93  CHL1      C21            26.8855451649      -33.8698943049        8.1806281056  MEMB      93              0.0000000000
     10692        93  CHL1      H21A           26.0547369820      -34.3287920801        7.5693097771  MEMB      93              0.0000000000
     10693        93  CHL1      H21B           26.7656675215      -32.8845137525        8.2105607401  MEMB      93              0.0000000000
     10694        93  CHL1      H21C           27.2154206842      -32.8412576375        8.2496055220  MEMB      93              0.0000000000
     10695        93  CHL1      C22            27.8492689741      -34.5896252000        6.0409751388  MEMB      93              0.0000000000
     10696        93  CHL1      H22A           28.9082995832      -34.7755471614        5.8375093951  MEMB      93              0.0000000000
     10697        93  CHL1      H22B           27.2395017138      -35.4861709810        6.2277024964  MEMB      93              0.0000000000
     10698        93  CHL1      C23            27.2051468654      -33.8411747128        4.7303352367  MEMB      93              0.0000000000
     10699        93  CHL1      H23A           26.0909731901      -33.8735729678        4.7157657091  MEMB      93              0.0000000000
     10700        93  CHL1      H23B           27.7665711328      -32.9589829596        4.4610341346  MEMB      93              0.0000000000
     10701        93  CHL1      C24            27.1778593110      -34.0869276433        3.2530167613  MEMB      93              0.0000000000
     10702        93  CHL1      H24A           28.2154250400      -34.2593438237        3.0165863578  MEMB      93              0.0000000000
     10703        93  CHL1      H24B           26.4045799484      -34.8466086284        3.2850348838  MEMB      93              0.0000000000
     10704        93  CHL1      C25            26.3447039795      -33.9399947031        2.0628286510  MEMB      93              0.0000000000
     10705        93  CHL1      H25            26.8356359938      -32.9987347377        1.8921703845  MEMB      93              0.0000000000
     10706        93  CHL1      C26            26.7735293041      -34.9321346906        1.0279905019  MEMB      93              0.0000000000
     10707        93  CHL1      H26A           26.2859486628      -35.8633630270        1.3832105805  MEMB      93              0.0000000000
     10708        93  CHL1      H26B           26.3660778860      -34.9355278073        0.0362865973  MEMB      93              0.0000000000
     10709        93  CHL1      H26C           27.8885815862      -34.9641546160        0.9318871810  MEMB      93              0.0000000000
     10710        93  CHL1      C27            24.8453059197      -34.2314424053        2.2679069790  MEMB      93              0.0000000000
     10711        93  CHL1      H27A           24.4719394647      -33.9364744586        1.2932527529  MEMB      93              0.0000000000
     10712        93  CHL1      H27B           24.5960421844      -35.3200186790        2.4262130322  MEMB      93              0.0000000000
     10713        93  CHL1      H27C           24.5173404260      -33.6955326017        3.1728893933  MEMB      93              0.0000000000
     10714        94  SAPC      N              36.9829972152      -30.7602590922       19.8021227780  MEMB      94              0.0000000000
     10715        94  SAPC      C12            37.4611679897      -31.7435048331       20.6724858128  MEMB      94              0.0000000000
     10716        94  SAPC      H12A           37.5722976214      -31.1157881497       21.5266785488  MEMB      94              0.0000000000
     10717        94  SAPC      H12B           38.3595210182      -32.1395792996       20.2426904057  MEMB      94              0.0000000000
     10718        94  SAPC      C13            35.7371418445      -30.3476181170       20.4651147370  MEMB      94              0.0000000000
     10719        94  SAPC      H13A           34.8504475147      -30.9055331794       20.1431421719  MEMB      94              0.0000000000
     10720        94  SAPC      H13B           35.7110230119      -29.9768021081       21.4769655496  MEMB      94              0.0000000000
     10721        94  SAPC      H13C           35.5234956447      -29.3970721266       20.0769455500  MEMB      94              0.0000000000
     10722        94  SAPC      C14            37.8470501088      -29.5597582465       19.6076475430  MEMB      94              0.0000000000
     10723        94  SAPC      H14A           38.1701581631      -29.1679201685       20.5454748028  MEMB      94              0.0000000000
     10724        94  SAPC      H14B           38.7105496371      -29.7646638389       18.9778923862  MEMB      94              0.0000000000
     10725        94  SAPC      H14C           37.3411202945      -28.7262497584       19.0907439044  MEMB      94              0.0000000000
     10726        94  SAPC      C15            36.8718895374      -31.5712430448       18.5766933260  MEMB      94              0.0000000000
     10727        94  SAPC      H15A           37.6836259087      -32.1938264593       18.2357803033  MEMB      94              0.0000000000
     10728        94  SAPC      H15B           35.8822566815      -31.9537202226       18.4301868312  MEMB      94              0.0000000000
     10729        94  SAPC      H15C           37.1369828340      -30.8992973589       17.7656395629  MEMB      94              0.0000000000
     10730        94  SAPC      C11            36.4487018206      -32.8712226080       21.0436091195  MEMB      94              0.0000000000
     10731        94  SAPC      H11A           35.7414651071      -32.4732503302       21.8100665819  MEMB      94              0.0000000000
     10732        94  SAPC      H11B           37.0567641407      -33.6408193548       21.5472105025  MEMB      94              0.0000000000
     10733        94  SAPC      P              34.2463365827      -33.8912992071       20.1589761514  MEMB      94              0.0000000000
     10734        94  SAPC      O13            34.1460316949      -34.5320614514       21.4919511757  MEMB      94              0.0000000000
     10735        94  SAPC      O14            33.4497912062      -32.6868729665       19.8804962085  MEMB      94              0.0000000000
     10736        94  SAPC      O12            35.7487195022      -33.4826976134       19.9578182919  MEMB      94              0.0000000000
     10737        94  SAPC      O11            34.0706553209      -34.9216662008       18.9798686592  MEMB      94              0.0000000000
     10738        94  SAPC      C1             33.9699518953      -36.2671339498       19.3722618823  MEMB      94              0.0000000000
     10739        94  SAPC      HA             34.9696035230      -36.5481988565       19.7759454046  MEMB      94              0.0000000000
     10740        94  SAPC      HB             33.2306319792      -36.3729284101       20.1957719892  MEMB      94              0.0000000000
     10741        94  SAPC      C2             33.4828352161      -37.1826932561       18.2020385568  MEMB      94              0.0000000000
     10742        94  SAPC      HS             33.3590955689      -38.2494251299       18.4807977327  MEMB      94              0.0000000000
     10743        94  SAPC      O21            34.2652004351      -37.1360015244       17.0346558397  MEMB      94              0.0000000000
     10744        94  SAPC      C21            35.5381711548      -36.9997656171       17.0613722344  MEMB      94              0.0000000000
     10745        94  SAPC      O22            36.3104654022      -36.8837575096       17.9849229066  MEMB      94              0.0000000000
     10746        94  SAPC      C22            35.9718370962      -36.9964285333       15.6802020285  MEMB      94              0.0000000000
     10747        94  SAPC      H2R            37.0172562605      -37.3058179435       15.8669156070  MEMB      94              0.0000000000
     10748        94  SAPC      H2S            35.5841782261      -37.7862809317       15.0143080305  MEMB      94              0.0000000000
     10749        94  SAPC      C3             32.1011707194      -36.9659223754       17.7735851627  MEMB      94              0.0000000000
     10750        94  SAPC      HX             31.4724463041      -37.1938471215       18.6374719822  MEMB      94              0.0000000000
     10751        94  SAPC      HY             31.8295957437      -37.7488700200       17.0171281554  MEMB      94              0.0000000000
     10752        94  SAPC      O31            31.9345403406      -35.6078987875       17.4098758208  MEMB      94              0.0000000000
     10753        94  SAPC      C31            32.1938284808      -35.2952299009       16.1677858760  MEMB      94              0.0000000000
     10754        94  SAPC      O32            32.4515712620      -36.0784110966       15.2668914582  MEMB      94              0.0000000000
     10755        94  SAPC      C32            32.0570368682      -33.8116045900       16.0255457885  MEMB      94              0.0000000000
     10756        94  SAPC      H2X            32.9860310062      -33.3855423260       16.4392966787  MEMB      94              0.0000000000
     10757        94  SAPC      H2Y            31.1794740701      -33.4816529692       16.6289537426  MEMB      94              0.0000000000
     10758        94  SAPC      C23            35.5964131194      -35.5825166660       15.1375826978  MEMB      94              0.0000000000
     10759        94  SAPC      H3R            34.5433761804      -35.6746707508       14.8779073787  MEMB      94              0.0000000000
     10760        94  SAPC      H3S            36.0529649344      -35.3153122199       14.1651242704  MEMB      94              0.0000000000
     10761        94  SAPC      C24            35.8053824816      -34.3658743558       16.0623711468  MEMB      94              0.0000000000
     10762        94  SAPC      H4R            35.2313532602      -34.4608819511       16.9941636955  MEMB      94              0.0000000000
     10763        94  SAPC      H4S            35.4382900796      -33.4556223875       15.5390412605  MEMB      94              0.0000000000
     10764        94  SAPC      C25            37.2449521304      -34.2170717850       16.3890318821  MEMB      94              0.0000000000
     10765        94  SAPC      H5R            37.6658968895      -34.7245121551       17.2575165583  MEMB      94              0.0000000000
     10766        94  SAPC      C26            38.0935861858      -33.8390124168       15.4664394256  MEMB      94              0.0000000000
     10767        94  SAPC      H6R            39.1976166949      -33.8569102121       15.5867947672  MEMB      94              0.0000000000
     10768        94  SAPC      C27            37.8095564190      -33.5212305992       14.1138263266  MEMB      94              0.0000000000
     10769        94  SAPC      H7R            37.9826215801      -32.6162586087       14.4701184182  MEMB      94              0.0000000000
     10770        94  SAPC      H7S            36.7321440163      -33.3235540353       13.8688318475  MEMB      94              0.0000000000
     10771        94  SAPC      C28            38.9884430062      -33.2314971945       13.2382180720  MEMB      94              0.0000000000
     10772        94  SAPC      H8R            39.8009834724      -32.5630670180       13.6011251935  MEMB      94              0.0000000000
     10773        94  SAPC      C29            38.8634764475      -33.5448803721       11.9866047540  MEMB      94              0.0000000000
     10774        94  SAPC      H9R            39.6382589085      -33.2225802359       11.2906779674  MEMB      94              0.0000000000
     10775        94  SAPC      C210           37.5884853518      -34.1905531458       11.5484468293  MEMB      94              0.0000000000
     10776        94  SAPC      H10R           36.6877804594      -33.5558269191       11.6420537106  MEMB      94              0.0000000000
     10777        94  SAPC      H10S           37.3204765145      -34.9973183725       12.2492680140  MEMB      94              0.0000000000
     10778        94  SAPC      C211           37.8215988911      -34.7867329974       10.2051765907  MEMB      94              0.0000000000
     10779        94  SAPC      H11R           38.8493996964      -35.1242219229       10.0224799247  MEMB      94              0.0000000000
     10780        94  SAPC      C212           36.8472559853      -35.1606887417        9.3786967183  MEMB      94              0.0000000000
     10781        94  SAPC      H12R           37.0836856605      -35.6971088992        8.4503597857  MEMB      94              0.0000000000
     10782        94  SAPC      C213           35.4015717109      -35.0213080086        9.7288580724  MEMB      94              0.0000000000
     10783        94  SAPC      H13R           35.2339181592      -34.4494821371       10.6611854511  MEMB      94              0.0000000000
     10784        94  SAPC      H13S           35.0308253920      -36.0445117770        9.9121275831  MEMB      94              0.0000000000
     10785        94  SAPC      C214           34.4571076017      -34.3732398422        8.8112774003  MEMB      94              0.0000000000
     10786        94  SAPC      H14R           34.6833218971      -33.3310837893        8.5403232948  MEMB      94              0.0000000000
     10787        94  SAPC      C215           33.5027879900      -35.0299462967        8.1634166014  MEMB      94              0.0000000000
     10788        94  SAPC      H15R           32.7660678840      -34.3741052127        7.6949401421  MEMB      94              0.0000000000
     10789        94  SAPC      C216           33.1386132444      -36.4946405010        8.1414354599  MEMB      94              0.0000000000
     10790        94  SAPC      H16R           32.4687905612      -36.6157484219        9.0098063899  MEMB      94              0.0000000000
     10791        94  SAPC      H16S           34.0425878207      -37.1392010014        8.2363254103  MEMB      94              0.0000000000
     10792        94  SAPC      C217           32.3281239121      -37.0731231221        6.9380873091  MEMB      94              0.0000000000
     10793        94  SAPC      H17R           31.4707969869      -36.3851761797        6.7629461982  MEMB      94              0.0000000000
     10794        94  SAPC      H17S           31.9445639995      -38.0704419155        7.1814428358  MEMB      94              0.0000000000
     10795        94  SAPC      C218           33.0298811098      -37.2923024190        5.5925677812  MEMB      94              0.0000000000
     10796        94  SAPC      H18R           33.5712546731      -38.2181850484        5.3857739451  MEMB      94              0.0000000000
     10797        94  SAPC      H18S           33.9061356773      -36.6920636364        5.7844195414  MEMB      94              0.0000000000
     10798        94  SAPC      C219           32.0636147817      -36.9196456333        4.4324201792  MEMB      94              0.0000000000
     10799        94  SAPC      H19R           31.6917542029      -35.8710895410        4.5453552604  MEMB      94              0.0000000000
     10800        94  SAPC      H19S           31.2145990954      -37.5677023655        4.5696369717  MEMB      94              0.0000000000
     10801        94  SAPC      C220           32.4367885875      -37.1294053549        2.9524919004  MEMB      94              0.0000000000
     10802        94  SAPC      H20R           33.3895878902      -36.6810038708        2.6365113017  MEMB      94              0.0000000000
     10803        94  SAPC      H20S           31.6904295244      -36.5991048125        2.3250989798  MEMB      94              0.0000000000
     10804        94  SAPC      H20T           32.5260708048      -38.1943069245        2.7337270902  MEMB      94              0.0000000000
     10805        94  SAPC      C33            31.9368593078      -33.4122677099       14.5633252077  MEMB      94              0.0000000000
     10806        94  SAPC      H3X            31.5707734865      -34.2622623903       13.9340254827  MEMB      94              0.0000000000
     10807        94  SAPC      H3Y            32.9032436607      -33.0444879702       14.1902585417  MEMB      94              0.0000000000
     10808        94  SAPC      C34            30.9706568561      -32.2869171470       14.4213852045  MEMB      94              0.0000000000
     10809        94  SAPC      H4X            31.1169091669      -31.4000542812       15.0322440084  MEMB      94              0.0000000000
     10810        94  SAPC      H4Y            30.1715373385      -32.6304722979       15.0042954310  MEMB      94              0.0000000000
     10811        94  SAPC      C35            30.7758778644      -31.9155140088       12.9822863428  MEMB      94              0.0000000000
     10812        94  SAPC      H5X            29.9020659274      -31.2153681486       12.9815568370  MEMB      94              0.0000000000
     10813        94  SAPC      H5Y            30.4256975352      -32.6951332997       12.3328471922  MEMB      94              0.0000000000
     10814        94  SAPC      C36            32.1579069186      -31.4322234476       12.4718920423  MEMB      94              0.0000000000
     10815        94  SAPC      H6X            32.7121031044      -30.7540227642       13.1341063875  MEMB      94              0.0000000000
     10816        94  SAPC      H6Y            32.0646771207      -30.8235572172       11.6100301234  MEMB      94              0.0000000000
     10817        94  SAPC      C37            32.9210900217      -32.2305147273       11.4849474449  MEMB      94              0.0000000000
     10818        94  SAPC      H7X            32.1922745821      -32.5699759054       10.6984160891  MEMB      94              0.0000000000
     10819        94  SAPC      H7Y            33.3027141984      -33.0549585820       12.0851158605  MEMB      94              0.0000000000
     10820        94  SAPC      C38            34.0922759442      -31.3983164209       10.9214842320  MEMB      94              0.0000000000
     10821        94  SAPC      H8X            34.5363378411      -32.0025003003       10.1080900167  MEMB      94              0.0000000000
     10822        94  SAPC      H8Y            34.8341357016      -31.1848662844       11.6921243559  MEMB      94              0.0000000000
     10823        94  SAPC      C39            33.9471796295      -29.9484081994       10.4912130085  MEMB      94              0.0000000000
     10824        94  SAPC      H9X            34.8069128680      -29.5488107855        9.9252517320  MEMB      94              0.0000000000
     10825        94  SAPC      H9Y            33.5952377159      -29.1949709652       11.2112184041  MEMB      94              0.0000000000
     10826        94  SAPC      C310           33.0265817762      -29.8926834105        9.4751560886  MEMB      94              0.0000000000
     10827        94  SAPC      H10X           32.6717615565      -28.8298196906        9.2806335323  MEMB      94              0.0000000000
     10828        94  SAPC      H10Y           32.1578522679      -30.2818832586        9.7824668737  MEMB      94              0.0000000000
     10829        94  SAPC      C311           33.2980100134      -31.0610763882        8.5163176331  MEMB      94              0.0000000000
     10830        94  SAPC      H11X           32.2501011418      -30.9529417059        8.0595414184  MEMB      94              0.0000000000
     10831        94  SAPC      H11Y           32.9556018867      -32.0468657409        8.8143242029  MEMB      94              0.0000000000
     10832        94  SAPC      C312           34.7656942281      -31.0801456598        7.5822699465  MEMB      94              0.0000000000
     10833        94  SAPC      H12X           35.4874361815      -31.5337674139        8.0741482040  MEMB      94              0.0000000000
     10834        94  SAPC      H12Y           35.1311162157      -30.0961143414        7.1687107326  MEMB      94              0.0000000000
     10835        94  SAPC      C313           35.0686772513      -31.7553294353        6.0486399716  MEMB      94              0.0000000000
     10836        94  SAPC      H13X           34.6045037030      -31.5830423829        5.0091672583  MEMB      94              0.0000000000
     10837        94  SAPC      H13Y           34.3866483980      -32.4446824528        6.0107725023  MEMB      94              0.0000000000
     10838        94  SAPC      C314           36.1576937452      -32.4809334352        5.7306340633  MEMB      94              0.0000000000
     10839        94  SAPC      H14X           36.0957417214      -33.2231050406        6.5452198882  MEMB      94              0.0000000000
     10840        94  SAPC      H14Y           36.4316391535      -31.5409169800        6.0077759888  MEMB      94              0.0000000000
     10841        94  SAPC      C315           36.1450122952      -32.6861699536        4.2331986884  MEMB      94              0.0000000000
     10842        94  SAPC      H15X           35.4741166752      -32.2701765935        3.4310918590  MEMB      94              0.0000000000
     10843        94  SAPC      H15Y           35.5144181361      -33.3751565617        4.6105602786  MEMB      94              0.0000000000
     10844        94  SAPC      C316           37.3381909050      -33.4339597419        3.9403364104  MEMB      94              0.0000000000
     10845        94  SAPC      H16X           37.8728323479      -33.4426614525        4.9190606303  MEMB      94              0.0000000000
     10846        94  SAPC      H16Y           37.7506709867      -32.8079626117        3.1381308414  MEMB      94              0.0000000000
     10847        94  SAPC      C317           37.1497375085      -34.8292589873        3.4717608476  MEMB      94              0.0000000000
     10848        94  SAPC      H17X           36.6923336650      -35.5387883241        4.1862710631  MEMB      94              0.0000000000
     10849        94  SAPC      H17Y           38.1720394340      -35.2317703043        3.3888699768  MEMB      94              0.0000000000
     10850        94  SAPC      C318           36.4473229144      -34.8058121766        2.1286745708  MEMB      94              0.0000000000
     10851        94  SAPC      H18X           36.9789325264      -34.2995250654        1.3236656726  MEMB      94              0.0000000000
     10852        94  SAPC      H18Y           35.3695135098      -34.6804148120        2.0043439296  MEMB      94              0.0000000000
     10853        94  SAPC      H18Z           36.3507396100      -35.8102801867        1.9281270783  MEMB      94              0.0000000000
     10854        95  SAPC      N             -38.8946730757       33.5297953422       20.6683242918  MEMB      95              0.0000000000
     10855        95  SAPC      C12           -37.8461813152       34.1657780037       19.7694198464  MEMB      95              0.0000000000
     10856        95  SAPC      H12A          -37.3913041967       35.0377507787       20.2404421389  MEMB      95              0.0000000000
     10857        95  SAPC      H12B          -38.3431135622       34.6340547828       19.0028930258  MEMB      95              0.0000000000
     10858        95  SAPC      C13           -39.9263097570       34.4708904339       21.1294925615  MEMB      95              0.0000000000
     10859        95  SAPC      H13A          -40.5419082055       34.0189765249       21.8900212522  MEMB      95              0.0000000000
     10860        95  SAPC      H13B          -39.5097262310       35.3895322459       21.5354529171  MEMB      95              0.0000000000
     10861        95  SAPC      H13C          -40.5502728798       34.7554560102       20.2899813993  MEMB      95              0.0000000000
     10862        95  SAPC      C14           -39.6034800898       32.3476714859       20.1883068948  MEMB      95              0.0000000000
     10863        95  SAPC      H14A          -40.3012896000       32.4575985522       19.3666634933  MEMB      95              0.0000000000
     10864        95  SAPC      H14B          -38.7899283982       31.7266011651       19.8469804336  MEMB      95              0.0000000000
     10865        95  SAPC      H14C          -39.9832373340       31.6968936781       20.9564980859  MEMB      95              0.0000000000
     10866        95  SAPC      C15           -38.0767364120       33.0582699276       21.7746917811  MEMB      95              0.0000000000
     10867        95  SAPC      H15A          -37.2444429865       32.5105965130       21.3069836062  MEMB      95              0.0000000000
     10868        95  SAPC      H15B          -37.5562277632       33.8833504859       22.2594523177  MEMB      95              0.0000000000
     10869        95  SAPC      H15C          -38.6308063708       32.4452954194       22.4511307720  MEMB      95              0.0000000000
     10870        95  SAPC      C11           -36.8866151667       33.4936783422       18.8125117762  MEMB      95              0.0000000000
     10871        95  SAPC      H11A          -36.5404041400       34.0344221496       17.9352078166  MEMB      95              0.0000000000
     10872        95  SAPC      H11B          -37.3845922121       32.8986049476       18.1334612097  MEMB      95              0.0000000000
     10873        95  SAPC      P             -34.5601840727       33.9476458744       19.4682216750  MEMB      95              0.0000000000
     10874        95  SAPC      O13           -34.9806072015       35.1180495957       20.2735008254  MEMB      95              0.0000000000
     10875        95  SAPC      O14           -33.6416917157       32.9755671086       20.0765781443  MEMB      95              0.0000000000
     10876        95  SAPC      O12           -35.7887110209       32.9474819767       19.4092956197  MEMB      95              0.0000000000
     10877        95  SAPC      O11           -34.2037931555       34.3250276746       17.9917174649  MEMB      95              0.0000000000
     10878        95  SAPC      C1            -32.9068210000       34.9347016420       18.0142848803  MEMB      95              0.0000000000
     10879        95  SAPC      HA            -32.8795602588       35.8938149570       18.5940855985  MEMB      95              0.0000000000
     10880        95  SAPC      HB            -32.1669461326       34.1870842340       18.3592563594  MEMB      95              0.0000000000
     10881        95  SAPC      C2            -32.3111728263       35.1454415437       16.6723595834  MEMB      95              0.0000000000
     10882        95  SAPC      HS            -31.5881426901       36.0079949503       16.6869789096  MEMB      95              0.0000000000
     10883        95  SAPC      O21           -33.3358033870       35.3209686885       15.7492968856  MEMB      95              0.0000000000
     10884        95  SAPC      C21           -33.7489089757       36.5006355974       15.8328242251  MEMB      95              0.0000000000
     10885        95  SAPC      O22           -33.4081244502       37.3400241805       16.6627416749  MEMB      95              0.0000000000
     10886        95  SAPC      C22           -34.3804506649       36.6623273622       14.4628520839  MEMB      95              0.0000000000
     10887        95  SAPC      H2R           -35.4205781093       36.6899330976       14.3801381269  MEMB      95              0.0000000000
     10888        95  SAPC      H2S           -34.1557120376       37.5960816303       14.0749632415  MEMB      95              0.0000000000
     10889        95  SAPC      C3            -31.5612508864       33.8940670798       16.2998991020  MEMB      95              0.0000000000
     10890        95  SAPC      HX            -30.7195942346       33.7746805788       17.0151002692  MEMB      95              0.0000000000
     10891        95  SAPC      HY            -31.2323949141       34.0371516168       15.2410419224  MEMB      95              0.0000000000
     10892        95  SAPC      O31           -32.3311839666       32.7786495569       16.4998532398  MEMB      95              0.0000000000
     10893        95  SAPC      C31           -31.8862351262       31.8235677682       15.8194907393  MEMB      95              0.0000000000
     10894        95  SAPC      O32           -30.9712703676       31.8351261585       15.0122478437  MEMB      95              0.0000000000
     10895        95  SAPC      C32           -32.7753646429       30.7734233389       16.3061203632  MEMB      95              0.0000000000
     10896        95  SAPC      H2X           -32.3636046150       30.5298936921       17.3093563299  MEMB      95              0.0000000000
     10897        95  SAPC      H2Y           -32.6178587030       29.8337147632       15.8845295266  MEMB      95              0.0000000000
     10898        95  SAPC      C23           -33.9743008857       35.8440644278       13.2950161390  MEMB      95              0.0000000000
     10899        95  SAPC      H3R           -34.8580733834       35.8965153793       12.6067893847  MEMB      95              0.0000000000
     10900        95  SAPC      H3S           -33.8689552420       34.7994305132       13.6085828682  MEMB      95              0.0000000000
     10901        95  SAPC      C24           -32.7711579562       36.5660405554       12.6974974429  MEMB      95              0.0000000000
     10902        95  SAPC      H4R           -32.8270431655       37.6545813403       12.7655035895  MEMB      95              0.0000000000
     10903        95  SAPC      H4S           -32.8165625861       36.4172539263       11.6090885503  MEMB      95              0.0000000000
     10904        95  SAPC      C25           -31.4545823277       36.2243919604       13.3220445609  MEMB      95              0.0000000000
     10905        95  SAPC      H5R           -31.2191827331       36.6345605108       14.3010788937  MEMB      95              0.0000000000
     10906        95  SAPC      C26           -30.5725429512       35.3932841687       12.7958601731  MEMB      95              0.0000000000
     10907        95  SAPC      H6R           -29.5815507755       35.1490979459       13.0844056688  MEMB      95              0.0000000000
     10908        95  SAPC      C27           -30.5004581547       34.5986863350       11.6623764059  MEMB      95              0.0000000000
     10909        95  SAPC      H7R           -30.3695978976       33.5933453389       12.1436998848  MEMB      95              0.0000000000
     10910        95  SAPC      H7S           -29.7774792570       34.9826478317       10.8949686648  MEMB      95              0.0000000000
     10911        95  SAPC      C28           -31.5590299413       34.5938690673       10.8005101403  MEMB      95              0.0000000000
     10912        95  SAPC      H8R           -32.3705841556       34.3807159941       11.6188062190  MEMB      95              0.0000000000
     10913        95  SAPC      C29           -31.6183458128       33.8444145123        9.6622868209  MEMB      95              0.0000000000
     10914        95  SAPC      H9R           -32.1793847828       33.0366576810        9.4154662027  MEMB      95              0.0000000000
     10915        95  SAPC      C210          -31.1152450150       33.0348205764        8.5759391060  MEMB      95              0.0000000000
     10916        95  SAPC      H10R          -31.1181215404       31.8470575134        8.6789860063  MEMB      95              0.0000000000
     10917        95  SAPC      H10S          -30.3120303255       33.3413647240        8.6228296297  MEMB      95              0.0000000000
     10918        95  SAPC      C211          -31.3370095041       33.4877607203        7.2234839137  MEMB      95              0.0000000000
     10919        95  SAPC      H11R          -31.4240979099       32.6253593832        6.5415623074  MEMB      95              0.0000000000
     10920        95  SAPC      C212          -31.3992072715       34.7034863761        6.7377870554  MEMB      95              0.0000000000
     10921        95  SAPC      H12R          -31.5944332615       34.7705156693        5.6741848641  MEMB      95              0.0000000000
     10922        95  SAPC      C213          -31.2509806500       35.9816854793        7.4851771631  MEMB      95              0.0000000000
     10923        95  SAPC      H13R          -30.2736727005       36.3479987140        7.1557033265  MEMB      95              0.0000000000
     10924        95  SAPC      H13S          -31.1635342733       35.8726229210        8.5749083126  MEMB      95              0.0000000000
     10925        95  SAPC      C214          -32.2610309283       37.0295367130        7.1756772035  MEMB      95              0.0000000000
     10926        95  SAPC      H14R          -33.0499853430       37.1764082138        7.9199699042  MEMB      95              0.0000000000
     10927        95  SAPC      C215          -32.3418607232       37.6450053910        5.9968476376  MEMB      95              0.0000000000
     10928        95  SAPC      H15R          -33.1036444402       38.4214179714        5.8257159082  MEMB      95              0.0000000000
     10929        95  SAPC      C216          -31.4276383436       37.3396843065        4.8460578088  MEMB      95              0.0000000000
     10930        95  SAPC      H16R          -30.8070341149       36.4333802336        4.9356379789  MEMB      95              0.0000000000
     10931        95  SAPC      H16S          -30.6529259689       38.1030871857        4.7281110020  MEMB      95              0.0000000000
     10932        95  SAPC      C217          -32.3510209424       37.1869740077        3.6582291249  MEMB      95              0.0000000000
     10933        95  SAPC      H17R          -32.7729100494       38.1719384462        3.3370337684  MEMB      95              0.0000000000
     10934        95  SAPC      H17S          -33.2108223177       36.5056465604        3.8527570705  MEMB      95              0.0000000000
     10935        95  SAPC      C218          -31.6720383274       36.6724647367        2.4510401206  MEMB      95              0.0000000000
     10936        95  SAPC      H18R          -31.5751858022       35.5588610490        2.4295357809  MEMB      95              0.0000000000
     10937        95  SAPC      H18S          -30.6627401316       37.1195073628        2.2617866812  MEMB      95              0.0000000000
     10938        95  SAPC      C219          -32.5997689968       37.0610128812        1.3777102198  MEMB      95              0.0000000000
     10939        95  SAPC      H19R          -32.5602937363       38.1546378338        1.0849772293  MEMB      95              0.0000000000
     10940        95  SAPC      H19S          -33.6541614527       36.7133203722        1.3791885301  MEMB      95              0.0000000000
     10941        95  SAPC      C220          -31.9904672137       36.3280650814        0.3490459735  MEMB      95              0.0000000000
     10942        95  SAPC      H20R          -32.7958695824       36.6316779984       -0.3567902074  MEMB      95              0.0000000000
     10943        95  SAPC      H20S          -31.9050242944       35.2495478484        0.1414067998  MEMB      95              0.0000000000
     10944        95  SAPC      H20T          -30.9923293074       36.8301080319        0.1846040147  MEMB      95              0.0000000000
     10945        95  SAPC      C33           -34.2590367807       31.2311173675       16.2981987148  MEMB      95              0.0000000000
     10946        95  SAPC      H3X           -34.4508183773       31.5821211905       17.3158724129  MEMB      95              0.0000000000
     10947        95  SAPC      H3Y           -34.8870725090       30.4112835788       16.0156897196  MEMB      95              0.0000000000
     10948        95  SAPC      C34           -35.1071393920       31.8926431987       15.1665261465  MEMB      95              0.0000000000
     10949        95  SAPC      H4X           -34.6111370205       32.8637183161       15.0238327822  MEMB      95              0.0000000000
     10950        95  SAPC      H4Y           -36.1582619500       31.8383542253       15.4147531293  MEMB      95              0.0000000000
     10951        95  SAPC      C35           -35.4797029765       31.0544763159       13.9153125359  MEMB      95              0.0000000000
     10952        95  SAPC      H5X           -35.6417796957       29.9659701911       13.8263997538  MEMB      95              0.0000000000
     10953        95  SAPC      H5Y           -34.4906342572       31.1454195569       14.2349067100  MEMB      95              0.0000000000
     10954        95  SAPC      C36           -35.8324877756       31.5924220572       12.5396994087  MEMB      95              0.0000000000
     10955        95  SAPC      H6X           -35.3783731630       32.5921650591       12.4118903490  MEMB      95              0.0000000000
     10956        95  SAPC      H6Y           -36.8984735515       31.6634217665       12.6469459546  MEMB      95              0.0000000000
     10957        95  SAPC      C37           -35.5868027534       30.5916722702       11.3808021290  MEMB      95              0.0000000000
     10958        95  SAPC      H7X           -35.7751090959       29.5168427455       11.4736865271  MEMB      95              0.0000000000
     10959        95  SAPC      H7Y           -34.6223931622       30.2953893106       11.5557511599  MEMB      95              0.0000000000
     10960        95  SAPC      C38           -35.8904848838       31.0378380982        9.9574837347  MEMB      95              0.0000000000
     10961        95  SAPC      H8X           -35.7261668859       32.0670292154        9.5900311212  MEMB      95              0.0000000000
     10962        95  SAPC      H8Y           -36.9421119331       31.1297179014        9.8764130285  MEMB      95              0.0000000000
     10963        95  SAPC      C39           -35.0809842016       30.2471168562        8.9927058339  MEMB      95              0.0000000000
     10964        95  SAPC      H9X           -35.5042604960       29.2891467013        9.0038490990  MEMB      95              0.0000000000
     10965        95  SAPC      H9Y           -33.9533284928       30.2569723260        9.0625165406  MEMB      95              0.0000000000
     10966        95  SAPC      C310          -35.6466891942       30.4530067772        7.6761231748  MEMB      95              0.0000000000
     10967        95  SAPC      H10X          -34.8727296937       31.0627004327        7.4187734909  MEMB      95              0.0000000000
     10968        95  SAPC      H10Y          -36.5336671590       31.0963229277        7.5688176871  MEMB      95              0.0000000000
     10969        95  SAPC      C311          -35.0395498178       29.8099790467        6.5562025911  MEMB      95              0.0000000000
     10970        95  SAPC      H11X          -35.4281623001       28.8401617883        6.4067061436  MEMB      95              0.0000000000
     10971        95  SAPC      H11Y          -33.8896624769       29.8997049272        6.4296493627  MEMB      95              0.0000000000
     10972        95  SAPC      C312          -35.5502816139       30.5431775131        5.4360395573  MEMB      95              0.0000000000
     10973        95  SAPC      H12X          -35.0840260027       29.7699363204        4.8174989727  MEMB      95              0.0000000000
     10974        95  SAPC      H12Y          -34.8035763586       31.3183576435        5.4414125773  MEMB      95              0.0000000000
     10975        95  SAPC      C313          -36.9905306073       31.0383706841        4.9122243330  MEMB      95              0.0000000000
     10976        95  SAPC      H13X          -37.3188552718       31.9634793020        5.3364773697  MEMB      95              0.0000000000
     10977        95  SAPC      H13Y          -37.5728296750       30.1978774944        5.2794224474  MEMB      95              0.0000000000
     10978        95  SAPC      C314          -37.5205716411       31.3354458019        3.4075823055  MEMB      95              0.0000000000
     10979        95  SAPC      H14X          -38.5872065904       31.2563215950        3.2890712152  MEMB      95              0.0000000000
     10980        95  SAPC      H14Y          -37.3694202691       30.3654085621        3.0559822172  MEMB      95              0.0000000000
     10981        95  SAPC      C315          -37.2356181715       32.5785163041        2.4349452424  MEMB      95              0.0000000000
     10982        95  SAPC      H15X          -37.5955126666       32.3853227983        1.4175900984  MEMB      95              0.0000000000
     10983        95  SAPC      H15Y          -36.2292604871       32.9044712077        2.0512798257  MEMB      95              0.0000000000
     10984        95  SAPC      C316          -37.5161387134       33.8680726969        3.0689088865  MEMB      95              0.0000000000
     10985        95  SAPC      H16X          -36.8845150714       34.0734324589        3.9471313369  MEMB      95              0.0000000000
     10986        95  SAPC      H16Y          -38.5330430869       33.7719913304        3.4585282475  MEMB      95              0.0000000000
     10987        95  SAPC      C317          -37.3260588923       34.9209850615        2.0026254451  MEMB      95              0.0000000000
     10988        95  SAPC      H17X          -37.8552998298       35.7881919718        2.4310352551  MEMB      95              0.0000000000
     10989        95  SAPC      H17Y          -37.8661318768       34.6612172506        1.0724092392  MEMB      95              0.0000000000
     10990        95  SAPC      C318          -35.8747830900       35.2380794809        1.5748528158  MEMB      95              0.0000000000
     10991        95  SAPC      H18X          -35.9576591750       36.0090678446        0.7682475958  MEMB      95              0.0000000000
     10992        95  SAPC      H18Y          -35.2825646398       34.4325052262        1.1313679109  MEMB      95              0.0000000000
     10993        95  SAPC      H18Z          -35.3132476592       35.7255767079        2.4042329168  MEMB      95              0.0000000000
     10994        96  SAPS      N             -30.5140997965       36.8650144878       20.7378791876  MEMB      96              0.0000000000
     10995        96  SAPS      HN1           -30.3193585730       37.2931000365       19.8104252465  MEMB      96              0.0000000000
     10996        96  SAPS      HN2           -31.5487186070       36.7847127572       20.9269360052  MEMB      96              0.0000000000
     10997        96  SAPS      HN3           -30.0148257219       37.3903904907       21.4611289338  MEMB      96              0.0000000000
     10998        96  SAPS      C12           -29.9971040672       35.4218245470       20.7082659641  MEMB      96              0.0000000000
     10999        96  SAPS      H12A          -29.9399561235       35.1265210620       21.7298922518  MEMB      96              0.0000000000
     11000        96  SAPS      C13           -30.9724686625       34.4210039026       20.2539462967  MEMB      96              0.0000000000
     11001        96  SAPS      O13A          -32.0799863516       34.8925092300       20.5719703341  MEMB      96              0.0000000000
     11002        96  SAPS      O13B          -30.7099207721       33.1967825585       20.0648865138  MEMB      96              0.0000000000
     11003        96  SAPS      C11           -28.7162883337       35.1426577052       19.9523117346  MEMB      96              0.0000000000
     11004        96  SAPS      H11A          -28.8254793212       35.3544118931       18.8456622450  MEMB      96              0.0000000000
     11005        96  SAPS      H11B          -28.5302299836       34.0572477121       19.9362875819  MEMB      96              0.0000000000
     11006        96  SAPS      P             -27.0967745563       37.0335266355       19.8754109626  MEMB      96              0.0000000000
     11007        96  SAPS      O13           -28.3464249786       37.4320851695       19.2366814307  MEMB      96              0.0000000000
     11008        96  SAPS      O14           -26.2949911148       37.9444362072       20.7085440560  MEMB      96              0.0000000000
     11009        96  SAPS      O12           -27.6527330519       35.8050103933       20.6773548716  MEMB      96              0.0000000000
     11010        96  SAPS      O11           -26.3056437356       36.4797838519       18.6838089963  MEMB      96              0.0000000000
     11011        96  SAPS      C1            -25.2284537845       35.6396689077       18.9889671143  MEMB      96              0.0000000000
     11012        96  SAPS      HA            -24.3454693747       36.2504949517       19.2599823481  MEMB      96              0.0000000000
     11013        96  SAPS      HB            -25.4962041405       34.9180946167       19.8085918442  MEMB      96              0.0000000000
     11014        96  SAPS      C2            -24.9559561385       34.7717645549       17.7838631283  MEMB      96              0.0000000000
     11015        96  SAPS      HS            -24.1776368059       34.0933041524       18.1834183783  MEMB      96              0.0000000000
     11016        96  SAPS      O21           -24.4152902224       35.4635542098       16.6782452841  MEMB      96              0.0000000000
     11017        96  SAPS      C21           -23.3286701890       35.0900890152       16.1267441818  MEMB      96              0.0000000000
     11018        96  SAPS      O22           -22.4355319261       34.3408700606       16.4319400634  MEMB      96              0.0000000000
     11019        96  SAPS      C22           -23.2842814614       35.6879828828       14.9000819607  MEMB      96              0.0000000000
     11020        96  SAPS      H2R           -24.2853000175       35.8846625320       14.4484672506  MEMB      96              0.0000000000
     11021        96  SAPS      H2S           -22.5431242356       36.5356079094       14.9957956422  MEMB      96              0.0000000000
     11022        96  SAPS      C3            -26.3113086639       34.1219007163       17.3530856334  MEMB      96              0.0000000000
     11023        96  SAPS      HX            -26.7471362328       33.5045706183       18.1912868386  MEMB      96              0.0000000000
     11024        96  SAPS      HY            -26.0786231871       33.4346354574       16.5424778896  MEMB      96              0.0000000000
     11025        96  SAPS      O31           -27.1870195382       34.9604438435       16.7143205690  MEMB      96              0.0000000000
     11026        96  SAPS      C31           -28.1982013084       34.3193164989       16.3184831606  MEMB      96              0.0000000000
     11027        96  SAPS      O32           -28.5968842202       33.2348918220       16.6537618185  MEMB      96              0.0000000000
     11028        96  SAPS      C32           -28.9752392900       35.2302707932       15.5563178373  MEMB      96              0.0000000000
     11029        96  SAPS      H2X           -29.8666121693       35.2148501368       16.1112803448  MEMB      96              0.0000000000
     11030        96  SAPS      H2Y           -29.2086632403       34.7808906483       14.6490642089  MEMB      96              0.0000000000
     11031        96  SAPS      C23           -22.6683036399       34.5950076541       14.1578443940  MEMB      96              0.0000000000
     11032        96  SAPS      H3R           -21.6005084933       34.3919550093       14.2980523967  MEMB      96              0.0000000000
     11033        96  SAPS      H3S           -22.6664569822       35.3742525909       13.5197225911  MEMB      96              0.0000000000
     11034        96  SAPS      C24           -23.3532615161       33.9601889110       13.0088705426  MEMB      96              0.0000000000
     11035        96  SAPS      H4R           -23.9660752331       33.2809056214       13.3993206708  MEMB      96              0.0000000000
     11036        96  SAPS      H4S           -22.6493804600       33.1959887462       12.6068479603  MEMB      96              0.0000000000
     11037        96  SAPS      C25           -24.2924431098       34.7606281133       12.1300581564  MEMB      96              0.0000000000
     11038        96  SAPS      H5R           -25.2785061177       34.8362968550       12.6218929136  MEMB      96              0.0000000000
     11039        96  SAPS      C26           -24.2726050927       34.9752974508       10.7987934438  MEMB      96              0.0000000000
     11040        96  SAPS      H6R           -25.2619903750       35.2276264622       10.4039173531  MEMB      96              0.0000000000
     11041        96  SAPS      C27           -23.3798539197       34.5346581217        9.6506729350  MEMB      96              0.0000000000
     11042        96  SAPS      H7R           -23.6082915572       33.9796488063        8.7665283188  MEMB      96              0.0000000000
     11043        96  SAPS      H7S           -22.6006350306       33.7774101429        9.9693137462  MEMB      96              0.0000000000
     11044        96  SAPS      C28           -23.4056678046       36.0204812281        9.4008066313  MEMB      96              0.0000000000
     11045        96  SAPS      H8R           -22.3845189752       35.8888015677        9.8364959016  MEMB      96              0.0000000000
     11046        96  SAPS      C29           -23.5035814036       37.0475146818        8.4213940613  MEMB      96              0.0000000000
     11047        96  SAPS      H9R           -22.9000280035       37.9598380756        8.7212484617  MEMB      96              0.0000000000
     11048        96  SAPS      C210          -23.6128148009       36.9296009181        6.8046481731  MEMB      96              0.0000000000
     11049        96  SAPS      H10R          -24.5759666573       37.3501715796        6.5337063010  MEMB      96              0.0000000000
     11050        96  SAPS      H10S          -23.8176657504       35.8576710523        6.6385384117  MEMB      96              0.0000000000
     11051        96  SAPS      C211          -22.5085869328       36.9515525155        5.6073273178  MEMB      96              0.0000000000
     11052        96  SAPS      H11R          -21.3813058799       37.0074176257        5.6989167077  MEMB      96              0.0000000000
     11053        96  SAPS      C212          -22.5317486463       36.4483054766        4.4216072465  MEMB      96              0.0000000000
     11054        96  SAPS      H12R          -21.5479542894       36.3939768240        3.8754975039  MEMB      96              0.0000000000
     11055        96  SAPS      C213          -23.7341501739       35.7489527896        3.9674412497  MEMB      96              0.0000000000
     11056        96  SAPS      H13R          -24.5075634029       35.5295502127        4.7332350833  MEMB      96              0.0000000000
     11057        96  SAPS      H13S          -23.4609690667       34.7851634297        3.5132608956  MEMB      96              0.0000000000
     11058        96  SAPS      C214          -24.2444497171       36.7937329474        3.0357562861  MEMB      96              0.0000000000
     11059        96  SAPS      H14R          -23.7318647285       37.7859584514        2.9737126574  MEMB      96              0.0000000000
     11060        96  SAPS      C215          -25.4106554153       36.6365542293        2.4655262640  MEMB      96              0.0000000000
     11061        96  SAPS      H15R          -25.7367632434       37.3027995114        1.7023789865  MEMB      96              0.0000000000
     11062        96  SAPS      C216          -26.3473790894       35.5322486800        2.6259823699  MEMB      96              0.0000000000
     11063        96  SAPS      H16R          -27.3944356243       35.8618909105        2.4583456635  MEMB      96              0.0000000000
     11064        96  SAPS      H16S          -26.2898230124       35.1777309170        3.6670518877  MEMB      96              0.0000000000
     11065        96  SAPS      C217          -25.9111610043       34.3881921253        1.7632432042  MEMB      96              0.0000000000
     11066        96  SAPS      H17R          -26.6215071148       33.6921821025        2.0468682783  MEMB      96              0.0000000000
     11067        96  SAPS      H17S          -24.9562507083       33.9225774326        2.0474659961  MEMB      96              0.0000000000
     11068        96  SAPS      C218          -26.2516566322       34.3612082311        0.3084483019  MEMB      96              0.0000000000
     11069        96  SAPS      H18R          -25.6506572873       35.1623094744       -0.1344289898  MEMB      96              0.0000000000
     11070        96  SAPS      H18S          -27.3435908217       34.4702990914        0.1129660685  MEMB      96              0.0000000000
     11071        96  SAPS      C219          -25.7315298259       33.0931715145       -0.3183586259  MEMB      96              0.0000000000
     11072        96  SAPS      H19R          -24.6392267431       33.1433804381       -0.1805525306  MEMB      96              0.0000000000
     11073        96  SAPS      H19S          -25.7598751117       33.1197022798       -1.4076239948  MEMB      96              0.0000000000
     11074        96  SAPS      C220          -26.4316998337       31.7510219526       -0.0674510735  MEMB      96              0.0000000000
     11075        96  SAPS      H20R          -26.4172686528       31.0944806329       -0.9520630976  MEMB      96              0.0000000000
     11076        96  SAPS      H20S          -27.5115974036       31.7516330215       -0.0957447089  MEMB      96              0.0000000000
     11077        96  SAPS      H20T          -25.9563767570       31.2398393173        0.7809952097  MEMB      96              0.0000000000
     11078        96  SAPS      C33           -28.7210751346       36.6513699283       15.8264163946  MEMB      96              0.0000000000
     11079        96  SAPS      H3X           -28.6073922980       36.7837692099       16.9261234354  MEMB      96              0.0000000000
     11080        96  SAPS      H3Y           -29.6055465349       37.2253359015       15.4764751967  MEMB      96              0.0000000000
     11081        96  SAPS      C34           -27.5416069343       37.1189655536       15.0846274583  MEMB      96              0.0000000000
     11082        96  SAPS      H4X           -26.5309992322       36.7577960388       15.3765862038  MEMB      96              0.0000000000
     11083        96  SAPS      H4Y           -27.6181256344       38.1107469898       15.5337824789  MEMB      96              0.0000000000
     11084        96  SAPS      C35           -27.8545290690       36.9601232986       13.6206123378  MEMB      96              0.0000000000
     11085        96  SAPS      H5X           -28.8989252444       37.2704141122       13.3109774305  MEMB      96              0.0000000000
     11086        96  SAPS      H5Y           -27.2775612088       36.2286234008       13.0328109640  MEMB      96              0.0000000000
     11087        96  SAPS      C36           -27.2085653305       37.9615731245       12.9051016984  MEMB      96              0.0000000000
     11088        96  SAPS      H6X           -26.2927220717       38.2678203062       13.3147683659  MEMB      96              0.0000000000
     11089        96  SAPS      H6Y           -27.7979794404       38.7050736871       13.3778747382  MEMB      96              0.0000000000
     11090        96  SAPS      C37           -27.7074590676       38.2715497761       11.5595352125  MEMB      96              0.0000000000
     11091        96  SAPS      H7X           -27.0004101392       38.8502406934       11.0417573720  MEMB      96              0.0000000000
     11092        96  SAPS      H7Y           -28.5785488223       38.9425803641       11.6435844190  MEMB      96              0.0000000000
     11093        96  SAPS      C38           -27.4731204628       37.2955816227       10.4906465892  MEMB      96              0.0000000000
     11094        96  SAPS      H8X           -28.0705685192       36.4917809646       10.8723330753  MEMB      96              0.0000000000
     11095        96  SAPS      H8Y           -26.3778868300       37.0459281349       10.6062613881  MEMB      96              0.0000000000
     11096        96  SAPS      C39           -27.9773513143       37.8454858453        9.1306843908  MEMB      96              0.0000000000
     11097        96  SAPS      H9X           -27.6742365008       38.8409395459        8.9157258891  MEMB      96              0.0000000000
     11098        96  SAPS      H9Y           -29.0471078422       38.0733287433        9.1066817587  MEMB      96              0.0000000000
     11099        96  SAPS      C310          -27.2408723146       37.4215721946        7.8901556326  MEMB      96              0.0000000000
     11100        96  SAPS      H10X          -26.1321342780       37.2575950315        7.9688634331  MEMB      96              0.0000000000
     11101        96  SAPS      H10Y          -27.4627917951       38.0187596474        6.9848205982  MEMB      96              0.0000000000
     11102        96  SAPS      C311          -27.7057136132       36.1317818242        7.6820434434  MEMB      96              0.0000000000
     11103        96  SAPS      H11X          -28.7182680874       35.8855054138        8.0283041580  MEMB      96              0.0000000000
     11104        96  SAPS      H11Y          -27.1174048014       35.6453593846        8.5123134004  MEMB      96              0.0000000000
     11105        96  SAPS      C312          -27.2891266231       35.7330930155        6.1952730606  MEMB      96              0.0000000000
     11106        96  SAPS      H12X          -26.2410617945       35.9451338475        5.9097570739  MEMB      96              0.0000000000
     11107        96  SAPS      H12Y          -28.1297705169       35.7605482169        5.5117323056  MEMB      96              0.0000000000
     11108        96  SAPS      C313          -26.7661878892       34.3775661795        6.2015518247  MEMB      96              0.0000000000
     11109        96  SAPS      H13X          -27.4179095042       34.3533056394        7.0686940777  MEMB      96              0.0000000000
     11110        96  SAPS      H13Y          -26.5297892329       34.4784439995        7.2425847306  MEMB      96              0.0000000000
     11111        96  SAPS      C314          -26.4535781776       32.9190855467        5.2022971520  MEMB      96              0.0000000000
     11112        96  SAPS      H14X          -25.7161314758       33.1696102691        4.5154142717  MEMB      96              0.0000000000
     11113        96  SAPS      H14Y          -27.0693559736       32.7960206633        4.3977458567  MEMB      96              0.0000000000
     11114        96  SAPS      C315          -26.6767708410       31.2131328823        5.4518105399  MEMB      96              0.0000000000
     11115        96  SAPS      H15X          -27.6718298960       30.7994426491        5.8694545513  MEMB      96              0.0000000000
     11116        96  SAPS      H15Y          -25.9866272383       30.8053339111        6.1847242035  MEMB      96              0.0000000000
     11117        96  SAPS      C316          -26.6798028239       30.3397390133        4.2314930850  MEMB      96              0.0000000000
     11118        96  SAPS      H16X          -27.6278202251       30.7555105991        4.0224832297  MEMB      96              0.0000000000
     11119        96  SAPS      H16Y          -27.0754570822       29.3151214765        4.1933626731  MEMB      96              0.0000000000
     11120        96  SAPS      C317          -25.4644925599       30.5593904694        3.3701758860  MEMB      96              0.0000000000
     11121        96  SAPS      H17X          -25.1854836753       31.6311019580        3.2911681019  MEMB      96              0.0000000000
     11122        96  SAPS      H17Y          -25.5779019769       30.1710990915        2.3418340048  MEMB      96              0.0000000000
     11123        96  SAPS      C318          -24.3756009411       29.8085940331        4.0727299955  MEMB      96              0.0000000000
     11124        96  SAPS      H18X          -23.3928397443       30.0696699521        3.6363445301  MEMB      96              0.0000000000
     11125        96  SAPS      H18Y          -24.6136538674       28.7249409037        3.9908348264  MEMB      96              0.0000000000
     11126        96  SAPS      H18Z          -24.4147161594       30.0968929289        5.1461639536  MEMB      96              0.0000000000
     11127        97  CHL1      C3              2.4361063388        0.8442744028      -17.3389236252  MEMB      97              0.0000000000
     11128        97  CHL1      H3              2.5411341773        1.9444477178      -17.4441099078  MEMB      97              0.0000000000
     11129        97  CHL1      O3              2.8067003339        0.2839900123      -18.5813839517  MEMB      97              0.0000000000
     11130        97  CHL1      H3'             3.6869371507        0.6436212191      -18.7838004350  MEMB      97              0.0000000000
     11131        97  CHL1      C4              3.4394324328        0.4167178758      -16.2530801456  MEMB      97              0.0000000000
     11132        97  CHL1      H4A             3.6491481357       -0.6773631086      -16.2971838823  MEMB      97              0.0000000000
     11133        97  CHL1      H4B             4.3995918722        0.9250431935      -16.4879621952  MEMB      97              0.0000000000
     11134        97  CHL1      C5              2.9821694080        0.8361341859      -14.8740676616  MEMB      97              0.0000000000
     11135        97  CHL1      C6              3.7575607313        1.5867569574      -14.0742080272  MEMB      97              0.0000000000
     11136        97  CHL1      H6              4.7366688739        1.9448327741      -14.4176751412  MEMB      97              0.0000000000
     11137        97  CHL1      C7              3.4632579382        1.8324931519      -12.6335002350  MEMB      97              0.0000000000
     11138        97  CHL1      H7A             4.3729948943        1.6517386053      -12.0156977617  MEMB      97              0.0000000000
     11139        97  CHL1      H7B             3.1064041148        2.8663036680      -12.4556063194  MEMB      97              0.0000000000
     11140        97  CHL1      C8              2.3791955876        0.8872059228      -12.1211260773  MEMB      97              0.0000000000
     11141        97  CHL1      H8              2.8662241867       -0.1120379292      -12.0088680871  MEMB      97              0.0000000000
     11142        97  CHL1      C14             1.9498805192        1.4139697690      -10.7965904259  MEMB      97              0.0000000000
     11143        97  CHL1      H14             1.4023759198        2.3856582005      -10.9317866135  MEMB      97              0.0000000000
     11144        97  CHL1      C15             3.0546337787        1.7081349090       -9.7570779246  MEMB      97              0.0000000000
     11145        97  CHL1      H15A            3.9243881127        1.0362837123       -9.7635248410  MEMB      97              0.0000000000
     11146        97  CHL1      H15B            3.3586224389        2.7485053409       -9.9802180956  MEMB      97              0.0000000000
     11147        97  CHL1      C16             2.4230338672        1.5194594895       -8.4032827120  MEMB      97              0.0000000000
     11148        97  CHL1      H16A            2.8756522344        0.7810993456       -7.7214849859  MEMB      97              0.0000000000
     11149        97  CHL1      H16B            2.4913855667        2.4724575884       -7.8413891027  MEMB      97              0.0000000000
     11150        97  CHL1      C17             1.0097792006        1.0129838934       -8.7774086198  MEMB      97              0.0000000000
     11151        97  CHL1      H17             0.5836788069        1.9610423411       -9.0522158019  MEMB      97              0.0000000000
     11152        97  CHL1      C13             0.9750248914        0.5223695016      -10.1845858794  MEMB      97              0.0000000000
     11153        97  CHL1      C18             1.5359020639       -0.8270191899      -10.0797370162  MEMB      97              0.0000000000
     11154        97  CHL1      H18A            2.2375979549       -1.0813468113       -9.2629903786  MEMB      97              0.0000000000
     11155        97  CHL1      H18B            0.5460136651       -1.0546073292       -9.7300896153  MEMB      97              0.0000000000
     11156        97  CHL1      H18C            1.5961163784       -1.4642937970      -10.9677863941  MEMB      97              0.0000000000
     11157        97  CHL1      C12            -0.3716321609        0.5572936447      -10.9641941892  MEMB      97              0.0000000000
     11158        97  CHL1      H12A           -1.1645024821       -0.1102636463      -10.5843019448  MEMB      97              0.0000000000
     11159        97  CHL1      H12B           -0.8482784364        1.5276512982      -10.9060664912  MEMB      97              0.0000000000
     11160        97  CHL1      C11            -0.1175988712        0.2219603774      -12.4370697157  MEMB      97              0.0000000000
     11161        97  CHL1      H11A           -0.0137357423       -0.8680715915      -12.4166078143  MEMB      97              0.0000000000
     11162        97  CHL1      H11B           -1.0234000331        0.4692003982      -13.0231576699  MEMB      97              0.0000000000
     11163        97  CHL1      C9              1.1676049915        0.8619261787      -13.0647458711  MEMB      97              0.0000000000
     11164        97  CHL1      H9              0.9029338765        1.9379566139      -13.1798163671  MEMB      97              0.0000000000
     11165        97  CHL1      C10             1.5683691412        0.3722715343      -14.4887995137  MEMB      97              0.0000000000
     11166        97  CHL1      C19             1.5190604496       -1.1681777457      -14.4965634099  MEMB      97              0.0000000000
     11167        97  CHL1      H19A            1.9417011003       -1.6081655015      -13.5686820793  MEMB      97              0.0000000000
     11168        97  CHL1      H19B            0.4523807417       -1.4365570847      -14.5588689164  MEMB      97              0.0000000000
     11169        97  CHL1      H19C            1.9827229418       -1.6629228014      -15.3711918282  MEMB      97              0.0000000000
     11170        97  CHL1      C1              0.5993622825        0.9396894815      -15.5813151707  MEMB      97              0.0000000000
     11171        97  CHL1      H1A            -0.4485367098        0.6519502704      -15.3475381819  MEMB      97              0.0000000000
     11172        97  CHL1      H1B             0.6138658843        2.0532714803      -15.6023903046  MEMB      97              0.0000000000
     11173        97  CHL1      C2              0.9720692269        0.4835193430      -17.0086209488  MEMB      97              0.0000000000
     11174        97  CHL1      H2A             0.2847649162        0.9542165373      -17.7489199996  MEMB      97              0.0000000000
     11175        97  CHL1      H2B             0.8367391404       -0.6152730660      -17.0927185520  MEMB      97              0.0000000000
     11176        97  CHL1      C20             0.3976260787        0.1740771398       -7.6491509572  MEMB      97              0.0000000000
     11177        97  CHL1      H20             1.0986295119       -0.6687819720       -7.5260744896  MEMB      97              0.0000000000
     11178        97  CHL1      C21            -1.0919989587       -0.3579995146       -7.7771821457  MEMB      97              0.0000000000
     11179        97  CHL1      H21A           -1.9077144875        0.0779513923       -7.1454289969  MEMB      97              0.0000000000
     11180        97  CHL1      H21B           -0.9799924307       -1.3656230088       -7.5124976187  MEMB      97              0.0000000000
     11181        97  CHL1      H21C           -1.5186198636       -0.3339627721       -8.7693048530  MEMB      97              0.0000000000
     11182        97  CHL1      C22             0.5838164417        0.9158428503       -6.3441293680  MEMB      97              0.0000000000
     11183        97  CHL1      H22A            1.5123753552        1.5109674563       -6.1516540452  MEMB      97              0.0000000000
     11184        97  CHL1      H22B           -0.4619328923        1.2984678718       -6.3559825844  MEMB      97              0.0000000000
     11185        97  CHL1      C23            -0.0449771503        0.5536586748       -5.0658093708  MEMB      97              0.0000000000
     11186        97  CHL1      H23A           -0.7181265795       -0.0572436839       -5.3800297796  MEMB      97              0.0000000000
     11187        97  CHL1      H23B            0.7164688853        0.0377045238       -5.5333834593  MEMB      97              0.0000000000
     11188        97  CHL1      C24            -0.0558573702        1.0256787055       -3.4969747216  MEMB      97              0.0000000000
     11189        97  CHL1      H24A            0.7359245174        1.7736245612       -3.4769424801  MEMB      97              0.0000000000
     11190        97  CHL1      H24B           -1.1610530734        1.1909164469       -3.6260217638  MEMB      97              0.0000000000
     11191        97  CHL1      C25            -0.2159885622        0.3776693354       -1.9590860182  MEMB      97              0.0000000000
     11192        97  CHL1      H25            -0.3518150872        1.1329258723       -1.2344429747  MEMB      97              0.0000000000
     11193        97  CHL1      C26            -2.0654831781       -0.0214137398       -2.3078083697  MEMB      97              0.0000000000
     11194        97  CHL1      H26A           -2.6058229614        0.7952463491       -2.3627572594  MEMB      97              0.0000000000
     11195        97  CHL1      H26B           -2.4932798868       -0.8653680450       -3.0451578765  MEMB      97              0.0000000000
     11196        97  CHL1      H26C           -2.6240481740       -0.7182895314       -1.5365193915  MEMB      97              0.0000000000
     11197        97  CHL1      C27             1.4316154562       -0.6587889358       -1.0125335642  MEMB      97              0.0000000000
     11198        97  CHL1      H27A            2.3059689750       -0.6996261620       -1.6451116383  MEMB      97              0.0000000000
     11199        97  CHL1      H27B            1.2356598467       -1.6548146323       -0.5057490609  MEMB      97              0.0000000000
     11200        97  CHL1      H27C            1.9354234697       -1.7202466021       -1.4976956076  MEMB      97              0.0000000000
     11201        98  OSM       N              -6.6110724253        1.1169696893      -21.6151291365  MEMB      98              0.0000000000
     11202        98  OSM       C15            -7.7315891299        0.4309071860      -22.3143706698  MEMB      98              0.0000000000
     11203        98  OSM       H15A           -7.4834611135       -0.5408964376      -22.6947873910  MEMB      98              0.0000000000
     11204        98  OSM       H15B           -8.2706432705        1.0781125335      -22.9842663722  MEMB      98              0.0000000000
     11205        98  OSM       H15C           -8.5013555778        0.2641971619      -21.5551976074  MEMB      98              0.0000000000
     11206        98  OSM       C14            -7.2328822576        2.1801787899      -20.7795417014  MEMB      98              0.0000000000
     11207        98  OSM       H14A           -7.6991335904        1.7534779090      -19.8903133938  MEMB      98              0.0000000000
     11208        98  OSM       H14B           -7.9937227907        2.7069784305      -21.3469177397  MEMB      98              0.0000000000
     11209        98  OSM       H14C           -6.4560628999        2.8618520731      -20.4456392476  MEMB      98              0.0000000000
     11210        98  OSM       C13            -5.7759970725        0.2518676295      -20.7030785369  MEMB      98              0.0000000000
     11211        98  OSM       H13A           -6.3762174660       -0.4357977682      -20.1226317451  MEMB      98              0.0000000000
     11212        98  OSM       H13B           -5.2262424832        0.9155401625      -20.0265737525  MEMB      98              0.0000000000
     11213        98  OSM       H13C           -4.9871167817       -0.2820404486      -21.2191420708  MEMB      98              0.0000000000
     11214        98  OSM       C12            -5.7510178357        1.7355570683      -22.6458106679  MEMB      98              0.0000000000
     11215        98  OSM       H12A           -6.4163450202        2.1116435037      -23.3990405457  MEMB      98              0.0000000000
     11216        98  OSM       H12B           -5.1116788512        0.9608689619      -23.0371818246  MEMB      98              0.0000000000
     11217        98  OSM       C11            -4.8568333369        2.8650315716      -22.1755674975  MEMB      98              0.0000000000
     11218        98  OSM       H11A           -5.4811099029        3.7422900767      -21.8633190855  MEMB      98              0.0000000000
     11219        98  OSM       H11B           -4.2332798982        3.1921759044      -23.0305742408  MEMB      98              0.0000000000
     11220        98  OSM       P              -3.3607895228        3.4560746207      -20.2403835007  MEMB      98              0.0000000000
     11221        98  OSM       O13            -2.2766122548        2.9248890698      -19.3909575982  MEMB      98              0.0000000000
     11222        98  OSM       O14            -3.1813561034        4.6502701605      -21.0707749921  MEMB      98              0.0000000000
     11223        98  OSM       O11            -4.6301149120        3.7923675573      -19.3554372666  MEMB      98              0.0000000000
     11224        98  OSM       O12            -4.0016751148        2.3698428849      -21.1517527395  MEMB      98              0.0000000000
     11225        98  OSM       C1S            -4.6484480646        4.9597088468      -18.5378378933  MEMB      98              0.0000000000
     11226        98  OSM       H1S            -5.3138640731        5.7249170552      -19.0096987744  MEMB      98              0.0000000000
     11227        98  OSM       H1T            -3.6550479542        5.4388605046      -18.3553944496  MEMB      98              0.0000000000
     11228        98  OSM       NF             -4.2848718402        3.7418439606      -16.3377559922  MEMB      98              0.0000000000
     11229        98  OSM       HNF            -4.4130719483        2.7915831331      -16.2635459305  MEMB      98              0.0000000000
     11230        98  OSM       C2S            -5.2012898636        4.5406712693      -17.1594574951  MEMB      98              0.0000000000
     11231        98  OSM       H2S            -5.4806521203        5.5201074748      -16.6797102418  MEMB      98              0.0000000000
     11232        98  OSM       C3S            -6.4611974879        3.6819893774      -17.3175843702  MEMB      98              0.0000000000
     11233        98  OSM       H3S            -6.1415585401        2.6823888039      -17.7176792993  MEMB      98              0.0000000000
     11234        98  OSM       O3             -7.4851990767        4.2056918321      -18.1575489076  MEMB      98              0.0000000000
     11235        98  OSM       HO3            -7.1180190337        5.0096096649      -18.5238103817  MEMB      98              0.0000000000
     11236        98  OSM       C4S            -6.9410113786        3.4039509334      -15.9160240321  MEMB      98              0.0000000000
     11237        98  OSM       H4S            -6.7854828172        4.2300285610      -15.2053477671  MEMB      98              0.0000000000
     11238        98  OSM       C5S            -7.3826282543        2.2049638362      -15.5039503565  MEMB      98              0.0000000000
     11239        98  OSM       H5S            -7.5074552570        1.4271648532      -16.2834174114  MEMB      98              0.0000000000
     11240        98  OSM       C6S            -7.8666714856        1.8110713308      -14.1184320879  MEMB      98              0.0000000000
     11241        98  OSM       H6S            -7.1238133234        1.1314807135      -13.6968237140  MEMB      98              0.0000000000
     11242        98  OSM       H6T            -8.7245985473        1.0996496056      -14.0403627594  MEMB      98              0.0000000000
     11243        98  OSM       C7S            -8.2921752050        2.8819322235      -13.1304298020  MEMB      98              0.0000000000
     11244        98  OSM       H7S            -9.1974246266        3.4323971453      -13.4687521317  MEMB      98              0.0000000000
     11245        98  OSM       H7T            -7.4767866589        3.6084103110      -12.9641589921  MEMB      98              0.0000000000
     11246        98  OSM       C8S            -8.6179298320        2.1466630863      -11.8461158553  MEMB      98              0.0000000000
     11247        98  OSM       H8S            -7.7835111476        1.4661253635      -11.5884847729  MEMB      98              0.0000000000
     11248        98  OSM       H8T            -9.4614615696        1.4605510535      -11.9955509083  MEMB      98              0.0000000000
     11249        98  OSM       C9S            -9.0568236167        3.0990314749      -10.7683512661  MEMB      98              0.0000000000
     11250        98  OSM       H9S           -10.1522538327        3.2805018788      -10.9466738851  MEMB      98              0.0000000000
     11251        98  OSM       H9T            -8.5035203315        4.0463303125      -10.6952174850  MEMB      98              0.0000000000
     11252        98  OSM       C10S           -8.9789505384        2.4949565624       -9.4162393602  MEMB      98              0.0000000000
     11253        98  OSM       H10S           -9.7992435316        1.7675298721       -9.5844320116  MEMB      98              0.0000000000
     11254        98  OSM       H10T           -9.2239938408        3.2753749459       -8.6618213016  MEMB      98              0.0000000000
     11255        98  OSM       C11S           -7.7816732775        1.6867017035       -8.9833053098  MEMB      98              0.0000000000
     11256        98  OSM       H11S           -6.9355939273        2.1954618365       -9.4480270282  MEMB      98              0.0000000000
     11257        98  OSM       H11T           -7.9227262735        0.7241954157       -9.5299954556  MEMB      98              0.0000000000
     11258        98  OSM       C12S           -7.4479608911        1.6448729680       -7.4617275728  MEMB      98              0.0000000000
     11259        98  OSM       H12S           -8.0148795832        1.0316885232       -6.8206943307  MEMB      98              0.0000000000
     11260        98  OSM       H12T           -7.8851211411        2.4269680350       -6.8311324207  MEMB      98              0.0000000000
     11261        98  OSM       C13S           -6.1034572369        1.0027794007       -7.0967755169  MEMB      98              0.0000000000
     11262        98  OSM       H13S           -5.3758617023        1.5802591741       -7.6842797494  MEMB      98              0.0000000000
     11263        98  OSM       H13T           -5.9649478290       -0.0703747372       -7.3775665138  MEMB      98              0.0000000000
     11264        98  OSM       C14S           -5.8840729578        1.1294518046       -5.6036638108  MEMB      98              0.0000000000
     11265        98  OSM       H14S           -6.4751106648        0.4324745881       -4.9646323863  MEMB      98              0.0000000000
     11266        98  OSM       H14T           -6.2218837461        2.1524449971       -5.3280261025  MEMB      98              0.0000000000
     11267        98  OSM       C15S           -4.4287320001        1.1060340045       -5.2654447150  MEMB      98              0.0000000000
     11268        98  OSM       H15S           -3.9423568292        1.9955614143       -5.7359665579  MEMB      98              0.0000000000
     11269        98  OSM       H15T           -3.8541475343        0.2630832627       -5.6729766839  MEMB      98              0.0000000000
     11270        98  OSM       C16S           -4.3106629429        1.2698296947       -3.7655352377  MEMB      98              0.0000000000
     11271        98  OSM       H16S           -4.7041300751        2.2365134010       -3.4419794080  MEMB      98              0.0000000000
     11272        98  OSM       H16T           -3.2326514553        1.4631733865       -3.7996903973  MEMB      98              0.0000000000
     11273        98  OSM       C17S           -4.9125729582        0.1518463815       -2.8268519687  MEMB      98              0.0000000000
     11274        98  OSM       H17S           -4.6035553791       -0.8238000606       -3.2906925931  MEMB      98              0.0000000000
     11275        98  OSM       H17T           -6.0121000782        0.1879845508       -2.9428851827  MEMB      98              0.0000000000
     11276        98  OSM       C18S           -4.7168551678        0.2216854878       -1.2508060514  MEMB      98              0.0000000000
     11277        98  OSM       H18S           -4.8578250987       -0.7581436065       -0.7408784250  MEMB      98              0.0000000000
     11278        98  OSM       H18T           -4.8477397534        1.2062716043       -0.7917460671  MEMB      98              0.0000000000
     11279        98  OSM       H18U           -3.7375648530        0.3835993422       -0.7819703020  MEMB      98              0.0000000000
     11280        98  OSM       C1F            -3.2901401449        4.1379382961      -15.6492020268  MEMB      98              0.0000000000
     11281        98  OSM       OF             -2.9269094473        5.1709902331      -15.7707554136  MEMB      98              0.0000000000
     11282        98  OSM       C2F            -2.5381817248        3.4958505213      -14.6292144559  MEMB      98              0.0000000000
     11283        98  OSM       H2F            -1.4639956463        3.8226546790      -14.7741602631  MEMB      98              0.0000000000
     11284        98  OSM       H2G            -2.7121415044        2.4294968758      -14.7491893319  MEMB      98              0.0000000000
     11285        98  OSM       C3F            -3.0070880253        4.1769239904      -13.3263949755  MEMB      98              0.0000000000
     11286        98  OSM       H3F            -4.1190473895        4.0995419394      -13.2915845364  MEMB      98              0.0000000000
     11287        98  OSM       H3G            -2.7618495125        5.2760184886      -13.2903623180  MEMB      98              0.0000000000
     11288        98  OSM       C4F            -2.4434751271        3.4504986318      -12.1093111342  MEMB      98              0.0000000000
     11289        98  OSM       H4F            -1.3353301588        3.5202477757      -12.1032384279  MEMB      98              0.0000000000
     11290        98  OSM       H4G            -2.6868874262        2.3709132089      -12.2455676761  MEMB      98              0.0000000000
     11291        98  OSM       C5F            -3.0454045257        3.9914924840      -10.8021515346  MEMB      98              0.0000000000
     11292        98  OSM       H5F            -4.1214084213        4.1739315709      -10.9625427242  MEMB      98              0.0000000000
     11293        98  OSM       H5G            -2.5673241883        4.9604765507      -10.5216466600  MEMB      98              0.0000000000
     11294        98  OSM       C6F            -2.9007490822        3.0719509388       -9.6092404410  MEMB      98              0.0000000000
     11295        98  OSM       H6F            -3.0804269454        2.0046604641       -9.8697022718  MEMB      98              0.0000000000
     11296        98  OSM       H6G            -3.5439107139        3.3470592275       -8.7387465939  MEMB      98              0.0000000000
     11297        98  OSM       C7F            -1.5262153527        3.3124511544       -9.1028656018  MEMB      98              0.0000000000
     11298        98  OSM       H7F            -1.3215710754        4.3259115111       -8.8159057113  MEMB      98              0.0000000000
     11299        98  OSM       H7G            -0.7683037447        3.0767613716       -9.8783658610  MEMB      98              0.0000000000
     11300        98  OSM       C8F            -1.3396354162        2.6383153982       -7.8383061530  MEMB      98              0.0000000000
     11301        98  OSM       H8F            -1.1973143367        1.7489378683       -8.5266325155  MEMB      98              0.0000000000
     11302        98  OSM       H8G            -2.0920395797        2.0944141095       -7.2290524297  MEMB      98              0.0000000000
     11303        98  OSM       C9F            -0.1259726702        3.3066367978       -7.1107302120  MEMB      98              0.0000000000
     11304        98  OSM       H9F             0.8017505197        3.1039601767       -7.6128564849  MEMB      98              0.0000000000
     11305        98  OSM       C10F            0.0688326036        3.5157941092       -5.7913179232  MEMB      98              0.0000000000
     11306        98  OSM       H10F            1.0673870313        3.1828801423       -5.3602133054  MEMB      98              0.0000000000
     11307        98  OSM       C11F           -1.0213710765        3.1025562769       -4.8593577251  MEMB      98              0.0000000000
     11308        98  OSM       H11F           -0.7006359597        2.9396199540       -3.8284520818  MEMB      98              0.0000000000
     11309        98  OSM       H11G           -1.7430166722        2.2730300628       -5.1039301313  MEMB      98              0.0000000000
     11310        98  OSM       C12F           -1.4999102126        4.1930850223       -4.1397112982  MEMB      98              0.0000000000
     11311        98  OSM       H12F           -2.3293031577        3.7478102146       -3.5202099526  MEMB      98              0.0000000000
     11312        98  OSM       H12G           -1.8740808722        4.6957999411       -5.0421841489  MEMB      98              0.0000000000
     11313        98  OSM       C13F           -0.2824687339        4.7659340459       -3.3099343210  MEMB      98              0.0000000000
     11314        98  OSM       H13F            0.6029091545        4.9476211287       -3.9578341797  MEMB      98              0.0000000000
     11315        98  OSM       H13G            0.0853764812        4.1279835442       -2.4811950952  MEMB      98              0.0000000000
     11316        98  OSM       C14F           -0.8078172570        5.9772093747       -2.7451799089  MEMB      98              0.0000000000
     11317        98  OSM       H14F           -1.0639341202        6.3874015846       -3.6703803602  MEMB      98              0.0000000000
     11318        98  OSM       H14G           -0.1018674500        6.6856923505       -2.3229174077  MEMB      98              0.0000000000
     11319        98  OSM       C15F           -2.0969542554        5.7163096050       -2.0584946453  MEMB      98              0.0000000000
     11320        98  OSM       H15F           -2.9197202638        5.2137492025       -2.5865412584  MEMB      98              0.0000000000
     11321        98  OSM       H15G           -2.5175912452        6.5987484575       -2.0114014215  MEMB      98              0.0000000000
     11322        98  OSM       C16F           -1.9481290718        5.2354429018       -0.6778072401  MEMB      98              0.0000000000
     11323        98  OSM       H16F           -1.4844432410        5.9776637025        0.0089110251  MEMB      98              0.0000000000
     11324        98  OSM       H16G           -1.2729550348        4.3651246278       -0.7951295383  MEMB      98              0.0000000000
     11325        98  OSM       C17F           -3.3130776940        4.7515281192       -0.2529515557  MEMB      98              0.0000000000
     11326        98  OSM       H17F           -3.1854836234        4.5100659118        0.8121825686  MEMB      98              0.0000000000
     11327        98  OSM       H17G           -3.5200785376        3.8806432591       -0.9297220136  MEMB      98              0.0000000000
     11328        98  OSM       C18F           -4.4865998405        5.7109288549       -0.3102497664  MEMB      98              0.0000000000
     11329        98  OSM       H18F           -5.3005836760        5.4609728976        0.4027394826  MEMB      98              0.0000000000
     11330        98  OSM       H18G           -4.8875185241        5.7443635508       -1.3445645101  MEMB      98              0.0000000000
     11331        98  OSM       H18H           -4.0914984276        6.6807554252        0.0223216556  MEMB      98              0.0000000000
     11332        99  SAPS      N              -4.8882407070       -6.0494182509      -19.5720390814  MEMB      99              0.0000000000
     11333        99  SAPS      HN1            -4.7752350862       -5.8665892460      -18.5545928146  MEMB      99              0.0000000000
     11334        99  SAPS      HN2            -5.8968560720       -5.9481951692      -19.8132286606  MEMB      99              0.0000000000
     11335        99  SAPS      HN3            -4.5589208996       -7.0080477404      -19.7992428998  MEMB      99              0.0000000000
     11336        99  SAPS      C12            -4.0122138850       -5.0709104531      -20.3098619451  MEMB      99              0.0000000000
     11337        99  SAPS      H12A           -4.1652670922       -5.2519542699      -21.3597496861  MEMB      99              0.0000000000
     11338        99  SAPS      C13            -4.3830979275       -3.5895501716      -20.1138165521  MEMB      99              0.0000000000
     11339        99  SAPS      O13A           -5.4946505717       -3.3390414875      -19.5791219532  MEMB      99              0.0000000000
     11340        99  SAPS      O13B           -3.7663794685       -2.7621106521      -20.8263257338  MEMB      99              0.0000000000
     11341        99  SAPS      C11            -2.5050581881       -5.2663719363      -19.9420519369  MEMB      99              0.0000000000
     11342        99  SAPS      H11A           -2.3883778599       -5.1496586122      -18.8377811243  MEMB      99              0.0000000000
     11343        99  SAPS      H11B           -1.9194847528       -4.4429832513      -20.4270246145  MEMB      99              0.0000000000
     11344        99  SAPS      P              -0.5143566017       -6.9770474931      -19.9916829358  MEMB      99              0.0000000000
     11345        99  SAPS      O13            -0.0920045305       -8.0449438342      -20.9236561753  MEMB      99              0.0000000000
     11346        99  SAPS      O14             0.3219781323       -5.7782516516      -19.8776025714  MEMB      99              0.0000000000
     11347        99  SAPS      O12            -2.0255784621       -6.5481238787      -20.3785143597  MEMB      99              0.0000000000
     11348        99  SAPS      O11            -0.7261140901       -7.5832738218      -18.5425882135  MEMB      99              0.0000000000
     11349        99  SAPS      C1             -1.9874494631       -8.0919292229      -18.1338155229  MEMB      99              0.0000000000
     11350        99  SAPS      HA             -2.7459218742       -7.3030234527      -18.2980660614  MEMB      99              0.0000000000
     11351        99  SAPS      HB             -2.2629369005       -9.0033462447      -18.7148304514  MEMB      99              0.0000000000
     11352        99  SAPS      C2             -2.0669717092       -8.4649768843      -16.6115836787  MEMB      99              0.0000000000
     11353        99  SAPS      HS             -3.1537028023       -8.5419923769      -16.3745602335  MEMB      99              0.0000000000
     11354        99  SAPS      O21            -1.4239713511       -7.4854638624      -15.7678024467  MEMB      99              0.0000000000
     11355        99  SAPS      C21            -2.1124730666       -6.3655242924      -15.6917091347  MEMB      99              0.0000000000
     11356        99  SAPS      O22            -3.2142714034       -6.1719695258      -16.1848610942  MEMB      99              0.0000000000
     11357        99  SAPS      C22            -1.2838899347       -5.2910937070      -14.9731597212  MEMB      99              0.0000000000
     11358        99  SAPS      H2R            -0.3994837373       -5.7441344884      -14.4766957601  MEMB      99              0.0000000000
     11359        99  SAPS      H2S            -0.8877886536       -4.6162667549      -15.7564861109  MEMB      99              0.0000000000
     11360        99  SAPS      C3             -1.4388878589       -9.8610238637      -16.3317417389  MEMB      99              0.0000000000
     11361        99  SAPS      HX             -0.4116999994       -9.8592740958      -16.7514046021  MEMB      99              0.0000000000
     11362        99  SAPS      HY             -2.0479475139      -10.5949250043      -16.9124307320  MEMB      99              0.0000000000
     11363        99  SAPS      O31            -1.4363828897      -10.2413467387      -14.9354150682  MEMB      99              0.0000000000
     11364        99  SAPS      C31            -0.3155745531      -10.0387692902      -14.2395005160  MEMB      99              0.0000000000
     11365        99  SAPS      O32             0.7341275248       -9.5910815989      -14.6317421668  MEMB      99              0.0000000000
     11366        99  SAPS      C32            -0.4943657154      -10.4472385117      -12.7977705270  MEMB      99              0.0000000000
     11367        99  SAPS      H2X            -0.0512371659      -11.4526949901      -12.6247815670  MEMB      99              0.0000000000
     11368        99  SAPS      H2Y            -1.5869427245      -10.4830695472      -12.6374908319  MEMB      99              0.0000000000
     11369        99  SAPS      C23            -2.1375256149       -4.3810283807      -14.0443918498  MEMB      99              0.0000000000
     11370        99  SAPS      H3R            -2.2987248139       -4.8804842307      -13.0728486496  MEMB      99              0.0000000000
     11371        99  SAPS      H3S            -3.1371707266       -4.2013374966      -14.5026513662  MEMB      99              0.0000000000
     11372        99  SAPS      C24            -1.4778846384       -3.0353140239      -13.7246022235  MEMB      99              0.0000000000
     11373        99  SAPS      H4R            -2.1000752253       -2.4464197704      -13.0150971099  MEMB      99              0.0000000000
     11374        99  SAPS      H4S            -1.3957603769       -2.4110163784      -14.6475922534  MEMB      99              0.0000000000
     11375        99  SAPS      C25            -0.1312756891       -3.3889231056      -13.1425848160  MEMB      99              0.0000000000
     11376        99  SAPS      H5R             0.5753283367       -3.7782792012      -13.8907648096  MEMB      99              0.0000000000
     11377        99  SAPS      C26             0.2690868848       -3.3874096078      -11.8598154579  MEMB      99              0.0000000000
     11378        99  SAPS      H6R             1.3376618533       -3.5481005934      -11.6651242754  MEMB      99              0.0000000000
     11379        99  SAPS      C27            -0.5424770737       -3.0251663214      -10.6353397445  MEMB      99              0.0000000000
     11380        99  SAPS      H7R            -1.4385108230       -3.6606269811      -10.6444124787  MEMB      99              0.0000000000
     11381        99  SAPS      H7S            -0.9378851276       -2.0095739141      -10.8209424044  MEMB      99              0.0000000000
     11382        99  SAPS      C28             0.0909027771       -3.1753584054       -9.2350617760  MEMB      99              0.0000000000
     11383        99  SAPS      H8R             0.3881361920       -2.3406153182       -8.6007612419  MEMB      99              0.0000000000
     11384        99  SAPS      C29             0.3502673736       -4.2387121657       -8.5696755752  MEMB      99              0.0000000000
     11385        99  SAPS      H9R             0.8612919584       -4.1533625936       -7.5904079371  MEMB      99              0.0000000000
     11386        99  SAPS      C210           -0.0110588728       -5.4803032417       -9.2393237903  MEMB      99              0.0000000000
     11387        99  SAPS      H10R            0.3612187381       -5.4759041965      -10.2800923711  MEMB      99              0.0000000000
     11388        99  SAPS      H10S           -1.0958639684       -5.4819356123       -9.2686631327  MEMB      99              0.0000000000
     11389        99  SAPS      C211            0.4712658650       -6.6527229368       -8.5282147710  MEMB      99              0.0000000000
     11390        99  SAPS      H11R            1.1862352198       -7.3189675757       -8.9668126072  MEMB      99              0.0000000000
     11391        99  SAPS      C212            0.1288793935       -7.1151173549       -7.4194145765  MEMB      99              0.0000000000
     11392        99  SAPS      H12R            0.7351407873       -7.9764505354       -7.2108637540  MEMB      99              0.0000000000
     11393        99  SAPS      C213           -0.8670703041       -6.6472232001       -6.4774086008  MEMB      99              0.0000000000
     11394        99  SAPS      H13R           -1.4227333087       -5.7513765447       -6.7246909579  MEMB      99              0.0000000000
     11395        99  SAPS      H13S           -0.2216768995       -6.5459193343       -5.5847221952  MEMB      99              0.0000000000
     11396        99  SAPS      C214           -1.5966883470       -7.9139392506       -6.5276376663  MEMB      99              0.0000000000
     11397        99  SAPS      H14R           -2.1052616200       -8.3970809356       -7.3715205755  MEMB      99              0.0000000000
     11398        99  SAPS      C215           -1.9891716246       -8.3631994784       -5.4418353382  MEMB      99              0.0000000000
     11399        99  SAPS      H15R           -2.4287307466       -9.4224747427       -5.3757945202  MEMB      99              0.0000000000
     11400        99  SAPS      C216           -1.7739048203       -7.5455180692       -4.3198405087  MEMB      99              0.0000000000
     11401        99  SAPS      H16R           -0.7847827154       -7.3370791618       -3.9731735208  MEMB      99              0.0000000000
     11402        99  SAPS      H16S           -1.7585752887       -8.6241322832       -4.0242767546  MEMB      99              0.0000000000
     11403        99  SAPS      C217           -2.7166573969       -6.2677553993       -3.8636536389  MEMB      99              0.0000000000
     11404        99  SAPS      H17R           -2.6336345057       -5.4841272704       -4.6262017157  MEMB      99              0.0000000000
     11405        99  SAPS      H17S           -2.3615034559       -5.7807537002       -2.9371964036  MEMB      99              0.0000000000
     11406        99  SAPS      C218           -4.2370931355       -6.2516275907       -3.3643359271  MEMB      99              0.0000000000
     11407        99  SAPS      H18R           -4.5977652932       -6.8932417880       -2.5553040601  MEMB      99              0.0000000000
     11408        99  SAPS      H18S           -5.0903522555       -6.8013957419       -3.7813321022  MEMB      99              0.0000000000
     11409        99  SAPS      C219           -4.5646125101       -4.8536590965       -3.0342406567  MEMB      99              0.0000000000
     11410        99  SAPS      H19R           -5.5390422611       -4.9706528108       -3.2404267344  MEMB      99              0.0000000000
     11411        99  SAPS      H19S           -4.6861367337       -4.0495821534       -3.7507597475  MEMB      99              0.0000000000
     11412        99  SAPS      C220           -4.8796590734       -4.5754069747       -1.6425609331  MEMB      99              0.0000000000
     11413        99  SAPS      H20R           -5.6804252929       -3.7887414654       -1.6993990450  MEMB      99              0.0000000000
     11414        99  SAPS      H20S           -3.8697795370       -4.2752116833       -1.3940393902  MEMB      99              0.0000000000
     11415        99  SAPS      H20T           -5.2593357155       -5.5104682513       -1.1496095950  MEMB      99              0.0000000000
     11416        99  SAPS      C33             0.1642640755       -9.4291724147      -11.8437729022  MEMB      99              0.0000000000
     11417        99  SAPS      H3X             1.2169566789       -9.2375646597      -12.1361812123  MEMB      99              0.0000000000
     11418        99  SAPS      H3Y             0.2504445484       -9.7475386771      -10.8030732359  MEMB      99              0.0000000000
     11419        99  SAPS      C34            -0.6237549550       -8.1369365398      -11.7770215738  MEMB      99              0.0000000000
     11420        99  SAPS      H4X            -0.7113146018       -7.7609095877      -12.8177479533  MEMB      99              0.0000000000
     11421        99  SAPS      H4Y            -0.0149765895       -7.4244912804      -11.1766509572  MEMB      99              0.0000000000
     11422        99  SAPS      C35            -2.0409584432       -8.2080211171      -11.1940251971  MEMB      99              0.0000000000
     11423        99  SAPS      H5X            -1.9706120088       -8.4653283994      -10.1096892896  MEMB      99              0.0000000000
     11424        99  SAPS      H5Y            -2.6588381070       -8.9827636204      -11.6944420460  MEMB      99              0.0000000000
     11425        99  SAPS      C36            -2.6969429347       -6.8437550686      -11.4859929623  MEMB      99              0.0000000000
     11426        99  SAPS      H6X            -2.7576445914       -6.6918289913      -12.5695520933  MEMB      99              0.0000000000
     11427        99  SAPS      H6Y            -2.1698608137       -6.0346608364      -10.9482585000  MEMB      99              0.0000000000
     11428        99  SAPS      C37            -4.0722526721       -6.5068589286      -11.0742477878  MEMB      99              0.0000000000
     11429        99  SAPS      H7X            -4.7773181607       -7.2680712448      -11.1633510336  MEMB      99              0.0000000000
     11430        99  SAPS      H7Y            -4.6324396625       -5.6676222430      -11.4955276880  MEMB      99              0.0000000000
     11431        99  SAPS      C38            -4.1757301213       -6.6991297935       -9.6976246477  MEMB      99              0.0000000000
     11432        99  SAPS      H8X            -3.8090433992       -7.7699985209       -9.6202172152  MEMB      99              0.0000000000
     11433        99  SAPS      H8Y            -5.2424918133       -6.5062946233       -9.4495140917  MEMB      99              0.0000000000
     11434        99  SAPS      C39            -3.5441693533       -5.8628481852       -8.7678740365  MEMB      99              0.0000000000
     11435        99  SAPS      H9X            -2.6092704729       -6.3375330501       -8.5193303390  MEMB      99              0.0000000000
     11436        99  SAPS      H9Y            -3.6634137694       -5.8976967816       -7.7256182152  MEMB      99              0.0000000000
     11437        99  SAPS      C310           -4.1193675578       -4.4972340823       -8.8964737376  MEMB      99              0.0000000000
     11438        99  SAPS      H10X           -5.2244574262       -4.4014518276       -8.7621090812  MEMB      99              0.0000000000
     11439        99  SAPS      H10Y           -3.9381267335       -4.3108275144       -9.9588003645  MEMB      99              0.0000000000
     11440        99  SAPS      C311           -3.3145807870       -3.6424556792       -7.9708450034  MEMB      99              0.0000000000
     11441        99  SAPS      H11X           -3.2103890747       -2.6625454000       -8.4465150177  MEMB      99              0.0000000000
     11442        99  SAPS      H11Y           -2.3580518913       -4.1990152274       -7.8196003044  MEMB      99              0.0000000000
     11443        99  SAPS      C312           -3.8873187526       -3.4075584063       -6.5937473303  MEMB      99              0.0000000000
     11444        99  SAPS      H12X           -3.8796378838       -4.4072481622       -6.0938152451  MEMB      99              0.0000000000
     11445        99  SAPS      H12Y           -4.8220099576       -2.8475768682       -6.8176453395  MEMB      99              0.0000000000
     11446        99  SAPS      C313           -3.3284133831       -2.5577204844       -5.5743004532  MEMB      99              0.0000000000
     11447        99  SAPS      H13X           -3.6548662394       -2.7824096710       -4.5403405511  MEMB      99              0.0000000000
     11448        99  SAPS      H13Y           -3.7374167733       -1.5546380816       -5.7678752577  MEMB      99              0.0000000000
     11449        99  SAPS      C314           -1.8959185209       -2.8958144381       -5.7924475146  MEMB      99              0.0000000000
     11450        99  SAPS      H14X           -1.5940445388       -2.7908017853       -6.8073299290  MEMB      99              0.0000000000
     11451        99  SAPS      H14Y           -1.5765432105       -3.8907798850       -5.4660285870  MEMB      99              0.0000000000
     11452        99  SAPS      C315           -1.1254678637       -2.0475683203       -4.9783633864  MEMB      99              0.0000000000
     11453        99  SAPS      H15X           -1.5467781897       -2.4304218437       -4.1181495121  MEMB      99              0.0000000000
     11454        99  SAPS      H15Y           -1.8550955644       -1.1595190300       -4.9748842662  MEMB      99              0.0000000000
     11455        99  SAPS      C316            0.5385800009       -2.1476366855       -5.1949637416  MEMB      99              0.0000000000
     11456        99  SAPS      H16X            0.5878941384       -1.8588919574       -6.2107385263  MEMB      99              0.0000000000
     11457        99  SAPS      H16Y            0.8186126912       -3.1652726608       -5.0368645763  MEMB      99              0.0000000000
     11458        99  SAPS      C317            1.8842259005       -1.3443572091       -4.5755699334  MEMB      99              0.0000000000
     11459        99  SAPS      H17X            2.1043665636       -0.1741286304       -4.5507861335  MEMB      99              0.0000000000
     11460        99  SAPS      H17Y            2.7703291169       -1.6692238608       -4.0522845316  MEMB      99              0.0000000000
     11461        99  SAPS      C318            1.2481461630       -1.3801425112       -3.5249246492  MEMB      99              0.0000000000
     11462        99  SAPS      H18X            0.9684868162       -2.3437515421       -3.0713967817  MEMB      99              0.0000000000
     11463        99  SAPS      H18Y            0.3213782308       -1.0153735510       -3.6158510778  MEMB      99              0.0000000000
     11464        99  SAPS      H18Z            1.4723778066       -0.3803357304       -3.0575226174  MEMB      99              0.0000000000
     11465       100  SOPE      N               0.2308838104       10.9352455905      -19.2902120774  MEMB      100             0.0000000000
     11466       100  SOPE      HN1             0.5677038122       11.9213075804      -19.2453922764  MEMB      100             0.0000000000
     11467       100  SOPE      HN2            -0.1486882800       10.5948560186      -18.3900014778  MEMB      100             0.0000000000
     11468       100  SOPE      HN3             1.0001616307       10.2903738921      -19.5887345678  MEMB      100             0.0000000000
     11469       100  SOPE      C12            -0.8010508877       10.7889382642      -20.3678021096  MEMB      100             0.0000000000
     11470       100  SOPE      H12A           -0.3475800540       11.2958987554      -21.2385636105  MEMB      100             0.0000000000
     11471       100  SOPE      H12B           -1.7336268955       11.3132430748      -20.0953628365  MEMB      100             0.0000000000
     11472       100  SOPE      C11            -1.0426874500        9.3191245182      -20.7265820886  MEMB      100             0.0000000000
     11473       100  SOPE      H11A           -1.6721614112        9.3566734031      -21.6435612037  MEMB      100             0.0000000000
     11474       100  SOPE      H11B           -1.6731313039        8.7359509063      -20.0208724272  MEMB      100             0.0000000000
     11475       100  SOPE      P               0.3112660234        7.2178695295      -21.6177172845  MEMB      100             0.0000000000
     11476       100  SOPE      O13             1.5433847397        7.1855912255      -22.4353853237  MEMB      100             0.0000000000
     11477       100  SOPE      O14            -0.9697234092        6.9043974000      -22.2786972117  MEMB      100             0.0000000000
     11478       100  SOPE      O12             0.2254433844        8.6942613685      -20.9543166824  MEMB      100             0.0000000000
     11479       100  SOPE      O11             0.5515789114        6.3578770132      -20.3144804557  MEMB      100             0.0000000000
     11480       100  SOPE      C1             -0.4484401605        5.4797921379      -19.7925028941  MEMB      100             0.0000000000
     11481       100  SOPE      HA             -0.1519470143        4.4150006290      -19.9146848280  MEMB      100             0.0000000000
     11482       100  SOPE      HB             -1.4054272393        5.6054985390      -20.3203220858  MEMB      100             0.0000000000
     11483       100  SOPE      C2             -0.7567835014        5.7920064126      -18.3208040571  MEMB      100             0.0000000000
     11484       100  SOPE      HS             -1.5075705589        5.0322226809      -17.9759077645  MEMB      100             0.0000000000
     11485       100  SOPE      O21            -1.2793898444        7.1573927241      -18.3730794033  MEMB      100             0.0000000000
     11486       100  SOPE      C21            -1.9120515249        7.6046358593      -17.3347849413  MEMB      100             0.0000000000
     11487       100  SOPE      O22            -2.1296383774        7.1148711525      -16.3185632397  MEMB      100             0.0000000000
     11488       100  SOPE      C22            -2.3258686679        8.9980792870      -17.1847658428  MEMB      100             0.0000000000
     11489       100  SOPE      H2R            -3.3323147005        9.0395521743      -17.6426067730  MEMB      100             0.0000000000
     11490       100  SOPE      H2S            -1.5224190049        9.5219543042      -17.6791392928  MEMB      100             0.0000000000
     11491       100  SOPE      C3              0.5697908693        5.6072860307      -17.4868314887  MEMB      100             0.0000000000
     11492       100  SOPE      HX              1.3633493702        6.1533460751      -18.0454264951  MEMB      100             0.0000000000
     11493       100  SOPE      HY              0.8190823267        4.5194080455      -17.5380979037  MEMB      100             0.0000000000
     11494       100  SOPE      O31             0.4725405091        6.0319584378      -16.1030822597  MEMB      100             0.0000000000
     11495       100  SOPE      C31             1.5978848723        6.3061374136      -15.4444354167  MEMB      100             0.0000000000
     11496       100  SOPE      O32             2.7181872659        6.2993628541      -15.9272945999  MEMB      100             0.0000000000
     11497       100  SOPE      C32             1.2995831920        6.6000481373      -13.9664334133  MEMB      100             0.0000000000
     11498       100  SOPE      H2X             0.4101115225        6.0212704970      -13.6448240901  MEMB      100             0.0000000000
     11499       100  SOPE      H2Y             1.0445596547        7.6724326358      -13.8629354065  MEMB      100             0.0000000000
     11500       100  SOPE      C23            -2.3100604507        9.3139720785      -15.6267365339  MEMB      100             0.0000000000
     11501       100  SOPE      H3R            -2.5286649383        8.5020161772      -14.8740404870  MEMB      100             0.0000000000
     11502       100  SOPE      H3S            -3.0876745403       10.0577210430      -15.4460074021  MEMB      100             0.0000000000
     11503       100  SOPE      C24            -0.9517711998        9.8399621008      -15.1947323334  MEMB      100             0.0000000000
     11504       100  SOPE      H4R            -0.2221594793        9.0150804199      -15.3771108228  MEMB      100             0.0000000000
     11505       100  SOPE      H4S            -0.7360660424       10.7028991136      -15.8521894171  MEMB      100             0.0000000000
     11506       100  SOPE      C25            -0.7693292225       10.3011921743      -13.7383495296  MEMB      100             0.0000000000
     11507       100  SOPE      H5R             0.3199622233       10.5201708901      -13.6318260849  MEMB      100             0.0000000000
     11508       100  SOPE      H5S            -1.2792163841       11.2620753552      -13.5487559866  MEMB      100             0.0000000000
     11509       100  SOPE      C26            -1.1806697932        9.2950855601      -12.6475278782  MEMB      100             0.0000000000
     11510       100  SOPE      H6R            -2.2753002216        9.1359607236      -12.6195728471  MEMB      100             0.0000000000
     11511       100  SOPE      H6S            -0.7212095234        8.3069334253      -12.8611450373  MEMB      100             0.0000000000
     11512       100  SOPE      C27            -0.7092259913        9.7632209370      -11.2677938014  MEMB      100             0.0000000000
     11513       100  SOPE      H7R             0.3827526840        9.6078766846      -11.2646931993  MEMB      100             0.0000000000
     11514       100  SOPE      H7S            -0.9472098026       10.8463689528      -11.1413145076  MEMB      100             0.0000000000
     11515       100  SOPE      C28            -1.2534696075        9.0152315452      -10.0434401839  MEMB      100             0.0000000000
     11516       100  SOPE      H8R            -0.7499205510        9.4519594598       -9.1542991760  MEMB      100             0.0000000000
     11517       100  SOPE      H8S            -2.3157695427        9.2819086291       -9.9157764951  MEMB      100             0.0000000000
     11518       100  SOPE      C29            -1.1162305899        7.5178094513      -10.0967153755  MEMB      100             0.0000000000
     11519       100  SOPE      H91            -1.7204414013        7.0298597841      -10.8799934065  MEMB      100             0.0000000000
     11520       100  SOPE      C210           -0.2749469184        6.7864077257       -9.3494641118  MEMB      100             0.0000000000
     11521       100  SOPE      H101           -0.3576075672        5.7004138959       -9.3731855456  MEMB      100             0.0000000000
     11522       100  SOPE      C211            0.6948868001        7.3044541605       -8.3238311497  MEMB      100             0.0000000000
     11523       100  SOPE      H11R            0.5994960738        8.3920405618       -8.1383629590  MEMB      100             0.0000000000
     11524       100  SOPE      H11S            1.7205937872        7.1396850020       -8.7095042744  MEMB      100             0.0000000000
     11525       100  SOPE      C212            0.6991422141        6.5462246244       -7.0053474356  MEMB      100             0.0000000000
     11526       100  SOPE      H12R            1.5795136654        6.8558050548       -6.3868523599  MEMB      100             0.0000000000
     11527       100  SOPE      H12S            0.7584337804        5.4859370006       -7.2109832222  MEMB      100             0.0000000000
     11528       100  SOPE      C213           -0.4961553210        6.6998649929       -6.1407433887  MEMB      100             0.0000000000
     11529       100  SOPE      H13R           -0.1966320396        6.1696576037       -5.2412092431  MEMB      100             0.0000000000
     11530       100  SOPE      H13S           -1.4678376309        6.2625990794       -6.4797841385  MEMB      100             0.0000000000
     11531       100  SOPE      C214           -0.5366401052        8.1333013719       -5.7699964446  MEMB      100             0.0000000000
     11532       100  SOPE      H14R           -0.7810694528        8.7686044454       -6.6415048143  MEMB      100             0.0000000000
     11533       100  SOPE      H14S            0.1918784308        8.5190568803       -5.0531943817  MEMB      100             0.0000000000
     11534       100  SOPE      C215           -1.5963985602        8.3450904242       -4.8305901715  MEMB      100             0.0000000000
     11535       100  SOPE      H15R           -2.0994763906        7.5353209768       -4.3367164222  MEMB      100             0.0000000000
     11536       100  SOPE      H15S           -2.4372986662        8.0451213563       -5.5954491839  MEMB      100             0.0000000000
     11537       100  SOPE      C216           -1.6538701904        9.6344675425       -3.6776017012  MEMB      100             0.0000000000
     11538       100  SOPE      H16R           -1.7780313257       10.7476764319       -3.9853110695  MEMB      100             0.0000000000
     11539       100  SOPE      H16S           -0.6749071382        9.9091736381       -3.2659976871  MEMB      100             0.0000000000
     11540       100  SOPE      C217           -3.0922667100        9.6054068191       -2.6910211720  MEMB      100             0.0000000000
     11541       100  SOPE      H17R           -4.4120871862        9.1262894407       -3.1546729866  MEMB      100             0.0000000000
     11542       100  SOPE      H17S           -3.0630546340       10.7101257899       -2.6284496075  MEMB      100             0.0000000000
     11543       100  SOPE      C218           -3.0696574092        9.0031932741       -1.6872509525  MEMB      100             0.0000000000
     11544       100  SOPE      H18R           -3.0566910238        8.0711284781       -1.9046949662  MEMB      100             0.0000000000
     11545       100  SOPE      H18S           -4.0536367502        8.8782892524       -1.6818137527  MEMB      100             0.0000000000
     11546       100  SOPE      H18T           -2.7600704177        9.7368470124       -0.9792304818  MEMB      100             0.0000000000
     11547       100  SOPE      C33             2.5111284454        6.2474424536      -13.0650017569  MEMB      100             0.0000000000
     11548       100  SOPE      H3X             3.0243048744        5.3282764381      -13.4257021586  MEMB      100             0.0000000000
     11549       100  SOPE      H3Y             2.1336987188        6.0256417300      -12.0403917523  MEMB      100             0.0000000000
     11550       100  SOPE      C34             3.4988280870        7.4133568465      -12.9472815854  MEMB      100             0.0000000000
     11551       100  SOPE      H4X             3.7847175796        7.7710677828      -13.9604585371  MEMB      100             0.0000000000
     11552       100  SOPE      H4Y             4.4405988047        7.0910782024      -12.4464482355  MEMB      100             0.0000000000
     11553       100  SOPE      C35             2.8810904301        8.5824343811      -12.1757482749  MEMB      100             0.0000000000
     11554       100  SOPE      H5X             2.3221024913        8.1994505995      -11.2914239215  MEMB      100             0.0000000000
     11555       100  SOPE      H5Y             2.1326156929        9.0989372982      -12.8157897545  MEMB      100             0.0000000000
     11556       100  SOPE      C36             3.9458400161        9.5784439887      -11.7423965553  MEMB      100             0.0000000000
     11557       100  SOPE      H6X             4.5881082423        9.8578817731      -12.6134217425  MEMB      100             0.0000000000
     11558       100  SOPE      H6Y             4.6417261651        9.0966420091      -11.0247006950  MEMB      100             0.0000000000
     11559       100  SOPE      C37             3.3559810524       10.8664677231      -11.1544678837  MEMB      100             0.0000000000
     11560       100  SOPE      H7X             2.7993671941       11.4258119956      -11.9443475101  MEMB      100             0.0000000000
     11561       100  SOPE      H7Y             4.2705045420       11.4009569643      -10.8704813378  MEMB      100             0.0000000000
     11562       100  SOPE      C38             2.5468832757       10.7984144141       -9.8608069652  MEMB      100             0.0000000000
     11563       100  SOPE      H8X             3.1380998395       10.2747423649       -9.0860160965  MEMB      100             0.0000000000
     11564       100  SOPE      H8Y             1.6803012826       10.1653224116      -10.0562074792  MEMB      100             0.0000000000
     11565       100  SOPE      C39             1.9922290691       12.1247754822       -9.2957731975  MEMB      100             0.0000000000
     11566       100  SOPE      H9X             1.5799455496       12.7707085231      -10.1001688861  MEMB      100             0.0000000000
     11567       100  SOPE      H9Y             2.7737996415       12.7134212629       -8.7938920657  MEMB      100             0.0000000000
     11568       100  SOPE      C310            0.9751227546       11.8416463028       -8.1919115904  MEMB      100             0.0000000000
     11569       100  SOPE      H10X            0.2512967372       11.0893008903       -8.5537424830  MEMB      100             0.0000000000
     11570       100  SOPE      H10Y            0.3874264459       12.7488056858       -7.9463629686  MEMB      100             0.0000000000
     11571       100  SOPE      C311            1.6765932327       11.3647932378       -6.9120809045  MEMB      100             0.0000000000
     11572       100  SOPE      H11X            2.5663316804       12.0016499154       -6.7251822569  MEMB      100             0.0000000000
     11573       100  SOPE      H11Y            2.0266000934       10.3111702566       -6.9981803494  MEMB      100             0.0000000000
     11574       100  SOPE      C312            0.7688423859       11.4571580668       -5.6928115032  MEMB      100             0.0000000000
     11575       100  SOPE      H12X            1.2610037645       10.8965270057       -4.8680471883  MEMB      100             0.0000000000
     11576       100  SOPE      H12Y           -0.1999192606       10.9937631666       -5.9711322880  MEMB      100             0.0000000000
     11577       100  SOPE      C313            0.5390288813       12.8942435834       -5.2292691071  MEMB      100             0.0000000000
     11578       100  SOPE      H13X            0.0746548841       13.4493014921       -6.0713261246  MEMB      100             0.0000000000
     11579       100  SOPE      H13Y            1.5421542191       13.3180710536       -5.0158611862  MEMB      100             0.0000000000
     11580       100  SOPE      C314           -0.3890078527       13.0547134563       -4.0190113926  MEMB      100             0.0000000000
     11581       100  SOPE      H14X           -1.3578651614       12.5887681738       -4.2448262956  MEMB      100             0.0000000000
     11582       100  SOPE      H14Y           -0.6090675575       14.1347445629       -3.8830479921  MEMB      100             0.0000000000
     11583       100  SOPE      C315            0.1725132202       12.5199361429       -2.7085862837  MEMB      100             0.0000000000
     11584       100  SOPE      H15X            0.8996388751       13.3048852068       -2.3871740214  MEMB      100             0.0000000000
     11585       100  SOPE      H15Y            0.7604906186       11.5894168177       -2.8292691936  MEMB      100             0.0000000000
     11586       100  SOPE      C316           -0.9009650927       12.1966158675       -1.6546265558  MEMB      100             0.0000000000
     11587       100  SOPE      H16X           -1.5948664082       11.4025765629       -1.8196209621  MEMB      100             0.0000000000
     11588       100  SOPE      H16Y           -1.4860869474       13.1347054685       -1.4338576644  MEMB      100             0.0000000000
     11589       100  SOPE      C317           -0.3073894101       11.4584233032       -0.4983566431  MEMB      100             0.0000000000
     11590       100  SOPE      H17X            0.6509492512       10.8643784150       -0.5537153405  MEMB      100             0.0000000000
     11591       100  SOPE      H17Y           -0.9365713580       11.4136912618        0.4646648098  MEMB      100             0.0000000000
     11592       100  SOPE      C318            0.3814963593       12.4867672307       -0.1250194167  MEMB      100             0.0000000000
     11593       100  SOPE      H18X            1.2621114636       13.0183865799       -0.5675871317  MEMB      100             0.0000000000
     11594       100  SOPE      H18Y            0.7394171809       12.0389533050        0.8936653285  MEMB      100             0.0000000000
     11595       100  SOPE      H18Z           -0.3922220262       13.3340507070        0.0313360030  MEMB      100             0.0000000000
     11596       101  CHL1      C3              5.2035392078       -6.8529294903      -17.3119878301  MEMB      101             0.0000000000
     11597       101  CHL1      H3              6.3062426353       -6.7399518629      -17.1963527310  MEMB      101             0.0000000000
     11598       101  CHL1      O3              4.9516199785       -7.3102080096      -18.6304822144  MEMB      101             0.0000000000
     11599       101  CHL1      H3'             5.0724228804       -6.5551818465      -19.2065108437  MEMB      101             0.0000000000
     11600       101  CHL1      C4              4.7681051521       -7.8892375433      -16.3262989120  MEMB      101             0.0000000000
     11601       101  CHL1      H4A             3.7508343992       -8.2982222656      -16.6177845415  MEMB      101             0.0000000000
     11602       101  CHL1      H4B             5.6076499291       -8.5671859279      -16.5384918557  MEMB      101             0.0000000000
     11603       101  CHL1      C5              4.8858495893       -7.6166041308      -14.8636405392  MEMB      101             0.0000000000
     11604       101  CHL1      C6              5.6692179032       -8.2758190798      -14.0107814339  MEMB      101             0.0000000000
     11605       101  CHL1      H6              6.3461175090       -9.0622660786      -14.2316415871  MEMB      101             0.0000000000
     11606       101  CHL1      C7              5.7068749238       -8.2723002968      -12.5873929004  MEMB      101             0.0000000000
     11607       101  CHL1      H7A             5.2872492089       -9.2513729991      -12.2864548885  MEMB      101             0.0000000000
     11608       101  CHL1      H7B             6.7743698638       -8.1380154177      -12.3428176062  MEMB      101             0.0000000000
     11609       101  CHL1      C8              4.7366123689       -7.2810420551      -12.0712267511  MEMB      101             0.0000000000
     11610       101  CHL1      H8              3.7489398968       -7.8058667886      -12.0473779478  MEMB      101             0.0000000000
     11611       101  CHL1      C14             5.2658567603       -6.9038995447      -10.7163096024  MEMB      101             0.0000000000
     11612       101  CHL1      H14             6.2444490556       -6.4045463089      -10.8795920970  MEMB      101             0.0000000000
     11613       101  CHL1      C15             5.5515185121       -8.0024043265       -9.6821155915  MEMB      101             0.0000000000
     11614       101  CHL1      H15A            4.6708770320       -8.6631026079       -9.7397041028  MEMB      101             0.0000000000
     11615       101  CHL1      H15B            6.4965240466       -8.5652531349       -9.8233974057  MEMB      101             0.0000000000
     11616       101  CHL1      C16             5.4935215103       -7.3125278536       -8.3227933797  MEMB      101             0.0000000000
     11617       101  CHL1      H16A            4.7614354555       -7.8666742943       -7.6966064501  MEMB      101             0.0000000000
     11618       101  CHL1      H16B            6.4679056162       -7.3448798281       -7.7915052361  MEMB      101             0.0000000000
     11619       101  CHL1      C17             4.9663330238       -5.8679992041       -8.6187169783  MEMB      101             0.0000000000
     11620       101  CHL1      H17             5.8618594335       -5.2224432732       -8.7355284690  MEMB      101             0.0000000000
     11621       101  CHL1      C13             4.3712779728       -5.9344295538      -10.0415877175  MEMB      101             0.0000000000
     11622       101  CHL1      C18             3.0154910171       -6.5655950797       -9.9789386697  MEMB      101             0.0000000000
     11623       101  CHL1      H18A            2.3847045846       -6.6157765085      -10.8886835073  MEMB      101             0.0000000000
     11624       101  CHL1      H18B            2.9896849905       -7.5635219240       -9.4931294913  MEMB      101             0.0000000000
     11625       101  CHL1      H18C            2.4811503959       -5.8493818661       -9.3543126604  MEMB      101             0.0000000000
     11626       101  CHL1      C12             4.3134403516       -4.6390161808      -10.8537825758  MEMB      101             0.0000000000
     11627       101  CHL1      H12A            3.6148849636       -3.9431096850      -10.3546013504  MEMB      101             0.0000000000
     11628       101  CHL1      H12B            5.3192255671       -4.1784382914      -10.8399316285  MEMB      101             0.0000000000
     11629       101  CHL1      C11             3.8497058622       -4.9199457843      -12.3010833384  MEMB      101             0.0000000000
     11630       101  CHL1      H11A            2.7765799561       -5.1953276839      -12.2334279325  MEMB      101             0.0000000000
     11631       101  CHL1      H11B            3.9120532941       -4.0237528588      -12.9439222657  MEMB      101             0.0000000000
     11632       101  CHL1      C9              4.6488914981       -6.0522322935      -12.9846164709  MEMB      101             0.0000000000
     11633       101  CHL1      H9              5.7061069104       -5.7019215025      -13.1041599323  MEMB      101             0.0000000000
     11634       101  CHL1      C10             4.1823742688       -6.3939204816      -14.4220684512  MEMB      101             0.0000000000
     11635       101  CHL1      C19             2.6704760603       -6.6462798339      -14.3887627572  MEMB      101             0.0000000000
     11636       101  CHL1      H19A            2.3780761836       -7.2545047842      -13.5062056965  MEMB      101             0.0000000000
     11637       101  CHL1      H19B            2.1885511815       -5.6528350927      -14.3461159149  MEMB      101             0.0000000000
     11638       101  CHL1      H19C            2.2922391431       -7.1884443333      -15.2772670470  MEMB      101             0.0000000000
     11639       101  CHL1      C1              4.6245434361       -5.2823939054      -15.4415094197  MEMB      101             0.0000000000
     11640       101  CHL1      H1A             4.1185154280       -4.3352889082      -15.1860918567  MEMB      101             0.0000000000
     11641       101  CHL1      H1B             5.7155119286       -5.1076941408      -15.2779299574  MEMB      101             0.0000000000
     11642       101  CHL1      C2              4.4471113813       -5.5938432904      -16.9556292721  MEMB      101             0.0000000000
     11643       101  CHL1      H2A             4.8607990680       -4.7681388496      -17.5645453937  MEMB      101             0.0000000000
     11644       101  CHL1      H2B             3.3765967971       -5.7569150235      -17.2179491841  MEMB      101             0.0000000000
     11645       101  CHL1      C20             4.1596170443       -5.3159092749       -7.4250546321  MEMB      101             0.0000000000
     11646       101  CHL1      H20             3.3315431236       -6.0426333655       -7.2254090492  MEMB      101             0.0000000000
     11647       101  CHL1      C21             3.4330035400       -3.9750562812       -7.6369461609  MEMB      101             0.0000000000
     11648       101  CHL1      H21A            4.0569664680       -3.1080010260       -7.9069475248  MEMB      101             0.0000000000
     11649       101  CHL1      H21B            2.8299605470       -3.7154492574       -6.7346074941  MEMB      101             0.0000000000
     11650       101  CHL1      H21C            2.7452066725       -4.1350246021       -8.4688970570  MEMB      101             0.0000000000
     11651       101  CHL1      C22             5.0959918707       -5.1466331372       -6.2160445420  MEMB      101             0.0000000000
     11652       101  CHL1      H22A            5.8975765167       -5.9127917214       -6.2076995812  MEMB      101             0.0000000000
     11653       101  CHL1      H22B            5.5884145219       -4.1537646900       -6.2952360708  MEMB      101             0.0000000000
     11654       101  CHL1      C23             4.4216004804       -5.2280486514       -4.8622309574  MEMB      101             0.0000000000
     11655       101  CHL1      H23A            5.1264190210       -4.8069173344       -4.1072535845  MEMB      101             0.0000000000
     11656       101  CHL1      H23B            3.4890842389       -4.6260935447       -4.8590606661  MEMB      101             0.0000000000
     11657       101  CHL1      C24             4.1082303342       -6.6709041851       -4.5204393214  MEMB      101             0.0000000000
     11658       101  CHL1      H24A            3.2989220392       -7.0535440659       -5.1876764619  MEMB      101             0.0000000000
     11659       101  CHL1      H24B            5.0030580867       -7.3225794470       -4.6593537051  MEMB      101             0.0000000000
     11660       101  CHL1      C25             3.7040868510       -6.7964862714       -3.0626917137  MEMB      101             0.0000000000
     11661       101  CHL1      H25             2.8794211209       -6.0955527279       -2.8323465150  MEMB      101             0.0000000000
     11662       101  CHL1      C26             3.1631653797       -8.1424077310       -2.9152983810  MEMB      101             0.0000000000
     11663       101  CHL1      H26A            3.9509744473       -8.9076029568       -3.1804176367  MEMB      101             0.0000000000
     11664       101  CHL1      H26B            2.6989309754       -8.5164705342       -2.0257295880  MEMB      101             0.0000000000
     11665       101  CHL1      H26C            2.1976927083       -8.2165736547       -3.4358384811  MEMB      101             0.0000000000
     11666       101  CHL1      C27             4.8924386019       -6.6474800694       -2.1275321858  MEMB      101             0.0000000000
     11667       101  CHL1      H27A            4.5386844116       -6.6788536036       -1.0817340262  MEMB      101             0.0000000000
     11668       101  CHL1      H27B            5.6192924553       -7.4758242742       -2.2796930349  MEMB      101             0.0000000000
     11669       101  CHL1      H27C            5.4235318100       -5.7090965694       -2.2593723636  MEMB      101             0.0000000000
     11670       102  CHL1      C3              7.6303979447        7.1682097834      -17.3732707107  MEMB      102             0.0000000000
     11671       102  CHL1      H3              6.7474199439        7.8387422395      -17.2922372582  MEMB      102             0.0000000000
     11672       102  CHL1      O3              7.6384717030        6.4878620968      -18.6094532897  MEMB      102             0.0000000000
     11673       102  CHL1      H3'             6.7729573097        6.0325286508      -18.6130698334  MEMB      102             0.0000000000
     11674       102  CHL1      C4              8.8630117863        8.0290098730      -17.2749924866  MEMB      102             0.0000000000
     11675       102  CHL1      H4A             9.7705144331        7.4635692536      -17.6024375845  MEMB      102             0.0000000000
     11676       102  CHL1      H4B             8.7289306841        8.7861532403      -18.0821666554  MEMB      102             0.0000000000
     11677       102  CHL1      C5              8.9199413486        8.6266088788      -15.8622860677  MEMB      102             0.0000000000
     11678       102  CHL1      C6              9.0285296344        9.9525417673      -15.6297391227  MEMB      102             0.0000000000
     11679       102  CHL1      H6              9.0281501943       10.6511767331      -16.4453213233  MEMB      102             0.0000000000
     11680       102  CHL1      C7              9.5123903951       10.6415622347      -14.3900871124  MEMB      102             0.0000000000
     11681       102  CHL1      H7A            10.4859984282       11.1792681803      -14.5327870913  MEMB      102             0.0000000000
     11682       102  CHL1      H7B             8.8922094697       11.5036815567      -14.1829014013  MEMB      102             0.0000000000
     11683       102  CHL1      C8              9.7494540394        9.6298649603      -13.2560230446  MEMB      102             0.0000000000
     11684       102  CHL1      H8             10.7087016813        9.1139846392      -13.1880270123  MEMB      102             0.0000000000
     11685       102  CHL1      C14             9.5382127773       10.3799244910      -12.0025632778  MEMB      102             0.0000000000
     11686       102  CHL1      H14             8.4484663792       10.5773629062      -12.0856967006  MEMB      102             0.0000000000
     11687       102  CHL1      C15            10.1228834503       11.8125416866      -11.8032580399  MEMB      102             0.0000000000
     11688       102  CHL1      H15A           11.0957093151       12.1444597461      -12.1061081760  MEMB      102             0.0000000000
     11689       102  CHL1      H15B            9.6035465643       12.5856858452      -12.3788433810  MEMB      102             0.0000000000
     11690       102  CHL1      C16            10.2215415445       11.9178774313      -10.2998614534  MEMB      102             0.0000000000
     11691       102  CHL1      H16A           11.2170019443       11.8480286421       -9.8687224168  MEMB      102             0.0000000000
     11692       102  CHL1      H16B           10.1147684324       12.9331037905       -9.9665732855  MEMB      102             0.0000000000
     11693       102  CHL1      C17             9.4547249456       10.6907403768       -9.7273567681  MEMB      102             0.0000000000
     11694       102  CHL1      H17             8.4006355299       10.8178996901       -9.8565564954  MEMB      102             0.0000000000
     11695       102  CHL1      C13             9.5931065457        9.5525500798      -10.7349267680  MEMB      102             0.0000000000
     11696       102  CHL1      C18            10.8489565611        8.9347809150      -10.4430523355  MEMB      102             0.0000000000
     11697       102  CHL1      H18A           11.3902515340        9.8879986676      -10.4880622957  MEMB      102             0.0000000000
     11698       102  CHL1      H18B           10.9722650719        8.4725093292       -9.4533260787  MEMB      102             0.0000000000
     11699       102  CHL1      H18C           11.3304942281        8.2669787809      -11.1807587281  MEMB      102             0.0000000000
     11700       102  CHL1      C12             8.6412311694        8.3980608605      -10.8386711225  MEMB      102             0.0000000000
     11701       102  CHL1      H12A            8.7359763427        7.7292410802       -9.9613346227  MEMB      102             0.0000000000
     11702       102  CHL1      H12B            7.6440096206        8.8532441193      -10.9023535157  MEMB      102             0.0000000000
     11703       102  CHL1      C11             8.9717166020        7.5761119011      -12.0917065702  MEMB      102             0.0000000000
     11704       102  CHL1      H11A            9.9927803228        7.1399609826      -11.9711375335  MEMB      102             0.0000000000
     11705       102  CHL1      H11B            8.2816402720        6.7258024466      -12.1551192333  MEMB      102             0.0000000000
     11706       102  CHL1      C9              8.8507754174        8.4323548225      -13.3699756973  MEMB      102             0.0000000000
     11707       102  CHL1      H9              7.8574200605        8.8921598902      -13.4404737183  MEMB      102             0.0000000000
     11708       102  CHL1      C10             8.9758845368        7.6383738022      -14.6603801641  MEMB      102             0.0000000000
     11709       102  CHL1      C19            10.1562931155        6.7254234978      -14.2978897634  MEMB      102             0.0000000000
     11710       102  CHL1      H19A           11.1294332626        7.0868180508      -14.0976110046  MEMB      102             0.0000000000
     11711       102  CHL1      H19B           10.0740035655        5.8245698758      -13.6846943776  MEMB      102             0.0000000000
     11712       102  CHL1      H19C           10.7063583389        6.5641201957      -15.1627115560  MEMB      102             0.0000000000
     11713       102  CHL1      C1              7.7262053441        6.7638982865      -14.8737827941  MEMB      102             0.0000000000
     11714       102  CHL1      H1A             7.7443630610        6.0166783147      -14.0642321015  MEMB      102             0.0000000000
     11715       102  CHL1      H1B             6.8177650047        7.3800849239      -14.7233372159  MEMB      102             0.0000000000
     11716       102  CHL1      C2              7.5252203378        6.1385159183      -16.2634544947  MEMB      102             0.0000000000
     11717       102  CHL1      H2A             6.5180032351        5.6911537674      -16.3284069588  MEMB      102             0.0000000000
     11718       102  CHL1      H2B             8.1988322733        5.3165081752      -16.4873325579  MEMB      102             0.0000000000
     11719       102  CHL1      C20             9.7514202848       10.5499728578       -8.2478542051  MEMB      102             0.0000000000
     11720       102  CHL1      H20            10.8571583466       10.4778712781       -8.1266394951  MEMB      102             0.0000000000
     11721       102  CHL1      C21             9.1285266159        9.2952689804       -7.6168560581  MEMB      102             0.0000000000
     11722       102  CHL1      H21A            8.0234740185        9.3024523809       -7.6771972570  MEMB      102             0.0000000000
     11723       102  CHL1      H21B            9.4163261142        9.2566585816       -6.5474577974  MEMB      102             0.0000000000
     11724       102  CHL1      H21C            9.5228124006        8.3733902566       -8.0833077805  MEMB      102             0.0000000000
     11725       102  CHL1      C22             9.2757654616       11.8304720818       -7.5323142526  MEMB      102             0.0000000000
     11726       102  CHL1      H22A            9.8822102536       12.6964798234       -7.8739059153  MEMB      102             0.0000000000
     11727       102  CHL1      H22B            8.2195786630       12.0418565820       -7.7671105546  MEMB      102             0.0000000000
     11728       102  CHL1      C23             9.3990295537       11.8095852504       -6.0255778425  MEMB      102             0.0000000000
     11729       102  CHL1      H23A            8.7363052530       11.0395389964       -5.5707920010  MEMB      102             0.0000000000
     11730       102  CHL1      H23B           10.4681733603       11.6078393454       -5.7958799556  MEMB      102             0.0000000000
     11731       102  CHL1      C24             9.1352521785       13.1803445766       -5.4407652014  MEMB      102             0.0000000000
     11732       102  CHL1      H24A            9.7827002186       13.8976986471       -5.9848887344  MEMB      102             0.0000000000
     11733       102  CHL1      H24B            8.1031923904       13.5322525821       -5.5839531803  MEMB      102             0.0000000000
     11734       102  CHL1      C25             9.4986629927       13.2085928395       -3.9691664793  MEMB      102             0.0000000000
     11735       102  CHL1      H25            10.3133873838       12.4830138788       -3.7591880231  MEMB      102             0.0000000000
     11736       102  CHL1      C26            10.0989826975       14.5996273461       -3.6774932654  MEMB      102             0.0000000000
     11737       102  CHL1      H26A           10.7129767779       14.6840829749       -2.7905272812  MEMB      102             0.0000000000
     11738       102  CHL1      H26B           10.9001660939       14.7681218397       -4.3869004662  MEMB      102             0.0000000000
     11739       102  CHL1      H26C            9.4470684206       15.4847565400       -3.7030272733  MEMB      102             0.0000000000
     11740       102  CHL1      C27             8.3208726166       12.6859541022       -3.1481642234  MEMB      102             0.0000000000
     11741       102  CHL1      H27A            7.5531094498       13.4586943308       -3.1282547973  MEMB      102             0.0000000000
     11742       102  CHL1      H27B            7.8290804684       11.7856627826       -3.5530125720  MEMB      102             0.0000000000
     11743       102  CHL1      H27C            8.6451579459       12.4466301344       -2.1174275414  MEMB      102             0.0000000000
     11744       103  SAPI      C12            10.9075733042       -1.3033496574      -24.5791533365  MEMB      103             0.0000000000
     11745       103  SAPI      H2              9.9052442737       -0.9409620340      -24.2483562235  MEMB      103             0.0000000000
     11746       103  SAPI      O2             10.8126022034       -2.7230193598      -24.6931095904  MEMB      103             0.0000000000
     11747       103  SAPI      HO2            11.2136363786       -3.0510888164      -23.8736131214  MEMB      103             0.0000000000
     11748       103  SAPI      C13            11.2188023146       -0.7184464760      -25.9398434429  MEMB      103             0.0000000000
     11749       103  SAPI      H3             11.2553280773        0.3904214417      -25.8922736690  MEMB      103             0.0000000000
     11750       103  SAPI      O3             10.2054359661       -1.0904995918      -26.8800077896  MEMB      103             0.0000000000
     11751       103  SAPI      HO3            10.0582176495       -2.0385253400      -26.7438406891  MEMB      103             0.0000000000
     11752       103  SAPI      C14            12.5804999783       -1.1871769013      -26.3831732003  MEMB      103             0.0000000000
     11753       103  SAPI      H4             12.4917718656       -2.2882243988      -26.3772684682  MEMB      103             0.0000000000
     11754       103  SAPI      O4             12.8678137904       -0.7806313648      -27.7210956742  MEMB      103             0.0000000000
     11755       103  SAPI      HO4            13.1905299960       -1.5385739536      -28.2201580965  MEMB      103             0.0000000000
     11756       103  SAPI      C15            13.6792361637       -0.8299967902      -25.3933308925  MEMB      103             0.0000000000
     11757       103  SAPI      H5             13.7179479841        0.2825912078      -25.2951248284  MEMB      103             0.0000000000
     11758       103  SAPI      O5             14.9451487521       -1.2965519924      -25.8706872612  MEMB      103             0.0000000000
     11759       103  SAPI      HO5            15.0140409332       -2.2400027323      -25.7633354378  MEMB      103             0.0000000000
     11760       103  SAPI      C16            13.3350487468       -1.4291671376      -24.0313030592  MEMB      103             0.0000000000
     11761       103  SAPI      H6             13.2584216594       -2.5274611559      -24.1936757082  MEMB      103             0.0000000000
     11762       103  SAPI      O6             14.3624558267       -1.2471928550      -23.0577408995  MEMB      103             0.0000000000
     11763       103  SAPI      HO6            14.1873885869       -1.8864637480      -22.3574571232  MEMB      103             0.0000000000
     11764       103  SAPI      C11            11.9823832988       -0.9094206089      -23.5618055574  MEMB      103             0.0000000000
     11765       103  SAPI      H1             12.0779083277        0.2123128000      -23.5115827271  MEMB      103             0.0000000000
     11766       103  SAPI      P              10.9899609936       -0.5848022137      -21.0660048711  MEMB      103             0.0000000000
     11767       103  SAPI      O13             9.6247548631       -0.1770198888      -21.4634072539  MEMB      103             0.0000000000
     11768       103  SAPI      O14            11.9796909068        0.4274891554      -20.6777842883  MEMB      103             0.0000000000
     11769       103  SAPI      O12            11.6377484584       -1.4983411873      -22.2953748750  MEMB      103             0.0000000000
     11770       103  SAPI      O11            10.8589297728       -1.6613444247      -19.9040404551  MEMB      103             0.0000000000
     11771       103  SAPI      C1              9.6462955964       -1.9564705673      -19.2141474834  MEMB      103             0.0000000000
     11772       103  SAPI      HA              8.7767308574       -1.7964101466      -19.8864325864  MEMB      103             0.0000000000
     11773       103  SAPI      HB              9.6653491669       -3.0357867742      -18.9498386657  MEMB      103             0.0000000000
     11774       103  SAPI      C2              9.3705842724       -1.0787740513      -17.9367268850  MEMB      103             0.0000000000
     11775       103  SAPI      HS              9.6310578957       -0.0182676724      -18.1549093147  MEMB      103             0.0000000000
     11776       103  SAPI      O21            10.0850248917       -1.5276754056      -16.7902013324  MEMB      103             0.0000000000
     11777       103  SAPI      C21            11.3666677115       -1.3071895235      -16.7382167936  MEMB      103             0.0000000000
     11778       103  SAPI      O22            12.0579183199       -0.6688178608      -17.5013495285  MEMB      103             0.0000000000
     11779       103  SAPI      C22            11.8175270162       -1.9920429716      -15.5037905085  MEMB      103             0.0000000000
     11780       103  SAPI      H2R            11.3212402573       -1.6227564462      -14.5838877314  MEMB      103             0.0000000000
     11781       103  SAPI      H2S            11.5618968054       -3.0695656456      -15.5883071597  MEMB      103             0.0000000000
     11782       103  SAPI      C3              7.8635405497       -1.0888277929      -17.5353691036  MEMB      103             0.0000000000
     11783       103  SAPI      HX              7.5208395347       -2.1082685941      -17.2480135836  MEMB      103             0.0000000000
     11784       103  SAPI      HY              7.2629940279       -0.8162768164      -18.4279049410  MEMB      103             0.0000000000
     11785       103  SAPI      O31             7.6031270163       -0.1155745159      -16.5071313284  MEMB      103             0.0000000000
     11786       103  SAPI      C31             7.5162963879       -0.5649043554      -15.2647031445  MEMB      103             0.0000000000
     11787       103  SAPI      O32             7.5887106227       -1.7244213345      -14.9061556888  MEMB      103             0.0000000000
     11788       103  SAPI      C32             7.2492031828        0.6013953947      -14.3196677446  MEMB      103             0.0000000000
     11789       103  SAPI      H2X             6.1664444570        0.6154922821      -14.1155022920  MEMB      103             0.0000000000
     11790       103  SAPI      H2Y             7.5148176929        1.5553543477      -14.8183628326  MEMB      103             0.0000000000
     11791       103  SAPI      C23            13.3102200232       -1.9297253305      -15.4109781358  MEMB      103             0.0000000000
     11792       103  SAPI      H3R            13.9413926262       -2.3313491362      -16.2377585745  MEMB      103             0.0000000000
     11793       103  SAPI      H3S            13.3547347387       -2.5059300009      -14.4940678867  MEMB      103             0.0000000000
     11794       103  SAPI      C24            14.0277927053       -0.7402381031      -14.9596025840  MEMB      103             0.0000000000
     11795       103  SAPI      H4R            13.9203760611       -0.0764117524      -15.8174799217  MEMB      103             0.0000000000
     11796       103  SAPI      H4S            15.1131895615       -1.0460780124      -14.8689941751  MEMB      103             0.0000000000
     11797       103  SAPI      C25            13.3274056691       -0.3761974236      -13.6814913289  MEMB      103             0.0000000000
     11798       103  SAPI      H5R            12.3192095835       -0.0275994066      -13.6310093708  MEMB      103             0.0000000000
     11799       103  SAPI      C26            14.0174215917       -0.1927236793      -12.6300786791  MEMB      103             0.0000000000
     11800       103  SAPI      H6R            13.6846707139       -0.1813451502      -11.5894166246  MEMB      103             0.0000000000
     11801       103  SAPI      C27            15.3601277399       -0.2796467262      -12.5912012746  MEMB      103             0.0000000000
     11802       103  SAPI      H7R            15.8124837863        0.6152607351      -12.0788834298  MEMB      103             0.0000000000
     11803       103  SAPI      H7S            15.9087420872       -0.0972570475      -13.5092266041  MEMB      103             0.0000000000
     11804       103  SAPI      C28            15.3915475865       -1.7149916058      -12.0491566065  MEMB      103             0.0000000000
     11805       103  SAPI      H8R            16.1139637058       -2.2506235939      -12.6809015055  MEMB      103             0.0000000000
     11806       103  SAPI      C29            15.1012632249       -2.2953334408      -10.8439815129  MEMB      103             0.0000000000
     11807       103  SAPI      H9R            15.8017973318       -3.0870260159      -10.5745725010  MEMB      103             0.0000000000
     11808       103  SAPI      C210           14.6150645641       -1.9283398250       -9.4829735477  MEMB      103             0.0000000000
     11809       103  SAPI      H10R           13.7774201124       -2.4544095316       -9.1672178389  MEMB      103             0.0000000000
     11810       103  SAPI      H10S           14.0890204832       -0.9157708405       -9.5996743866  MEMB      103             0.0000000000
     11811       103  SAPI      C211           15.8030266407       -2.2817423234       -8.4763532293  MEMB      103             0.0000000000
     11812       103  SAPI      H11R           16.7066237500       -1.7788722489       -8.2797463695  MEMB      103             0.0000000000
     11813       103  SAPI      C212           16.1262795086       -2.3414234360       -7.2129513718  MEMB      103             0.0000000000
     11814       103  SAPI      H12R           16.8362313520       -1.5767200399       -6.6586165324  MEMB      103             0.0000000000
     11815       103  SAPI      C213           15.1541633553       -2.0767024482       -6.3549766809  MEMB      103             0.0000000000
     11816       103  SAPI      H13R           15.5018609809       -1.8767232946       -5.3369409477  MEMB      103             0.0000000000
     11817       103  SAPI      H13S           15.8538102653       -2.9766601770       -6.3612512390  MEMB      103             0.0000000000
     11818       103  SAPI      C214           13.6626259177       -2.3281122959       -6.7651050263  MEMB      103             0.0000000000
     11819       103  SAPI      H14R           13.3317623075       -3.3457693229       -6.9484145731  MEMB      103             0.0000000000
     11820       103  SAPI      C215           12.5688627647       -1.7201520630       -6.9466136820  MEMB      103             0.0000000000
     11821       103  SAPI      H15R           11.6847527297       -2.3449998479       -7.0222938636  MEMB      103             0.0000000000
     11822       103  SAPI      C216           12.4954336426       -0.3331790292       -6.7630527349  MEMB      103             0.0000000000
     11823       103  SAPI      H16R           11.6231635220        0.1805278582       -7.1229802970  MEMB      103             0.0000000000
     11824       103  SAPI      H16S           13.1660333856        0.0420912161       -7.5439187653  MEMB      103             0.0000000000
     11825       103  SAPI      C217           12.8565166421       -0.1356209153       -5.2996532513  MEMB      103             0.0000000000
     11826       103  SAPI      H17R           12.5456680893        0.9347619536       -5.3593518637  MEMB      103             0.0000000000
     11827       103  SAPI      H17S           13.9256666300       -0.3628390716       -5.0020848143  MEMB      103             0.0000000000
     11828       103  SAPI      C218           11.9895893709       -0.2968390294       -4.1421837737  MEMB      103             0.0000000000
     11829       103  SAPI      H18R           11.9357742675       -1.3897856723       -4.1474910798  MEMB      103             0.0000000000
     11830       103  SAPI      H18S           11.0639197511        0.2520667532       -4.4423623491  MEMB      103             0.0000000000
     11831       103  SAPI      C219           12.6113679954        0.2232052856       -2.8386734744  MEMB      103             0.0000000000
     11832       103  SAPI      H19R           13.6589883565       -0.1388053411       -2.6590999331  MEMB      103             0.0000000000
     11833       103  SAPI      H19S           11.9409700410       -0.2196079582       -2.0831813688  MEMB      103             0.0000000000
     11834       103  SAPI      C220           12.5216123939        1.7150454065       -2.5823995780  MEMB      103             0.0000000000
     11835       103  SAPI      H20R           12.9987566626        2.3043651669       -3.3178570338  MEMB      103             0.0000000000
     11836       103  SAPI      H20S           13.0191579737        1.9625374650       -1.6431294554  MEMB      103             0.0000000000
     11837       103  SAPI      H20T           11.5201741223        2.1412187606       -2.7054708191  MEMB      103             0.0000000000
     11838       103  SAPI      C33             8.0425204166        0.4025263505      -13.0118582809  MEMB      103             0.0000000000
     11839       103  SAPI      H3X             7.9028526620       -0.6164899948      -12.5834346652  MEMB      103             0.0000000000
     11840       103  SAPI      H3Y             7.6534182247        1.0976368154      -12.2362231266  MEMB      103             0.0000000000
     11841       103  SAPI      C34             9.5312137267        0.6247813379      -13.2605290836  MEMB      103             0.0000000000
     11842       103  SAPI      H4X             9.6839546341        1.4486776158      -13.9981743814  MEMB      103             0.0000000000
     11843       103  SAPI      H4Y             9.9895530318       -0.2725614053      -13.7329302365  MEMB      103             0.0000000000
     11844       103  SAPI      C35            10.3290796999        1.0433969108      -12.0268941070  MEMB      103             0.0000000000
     11845       103  SAPI      H5X            10.1013206346        2.0888130293      -11.7290737307  MEMB      103             0.0000000000
     11846       103  SAPI      H5Y            11.3528243312        0.9575060164      -12.3772950550  MEMB      103             0.0000000000
     11847       103  SAPI      C36            10.4255404060        0.1636802805      -10.7972253900  MEMB      103             0.0000000000
     11848       103  SAPI      H6X             9.4435731596        0.3006377452      -10.3129804810  MEMB      103             0.0000000000
     11849       103  SAPI      H6Y            11.2329852501        0.5542038068      -10.1237906011  MEMB      103             0.0000000000
     11850       103  SAPI      C37            10.7317454432       -1.2938730918      -11.1269981467  MEMB      103             0.0000000000
     11851       103  SAPI      H7X            11.7324971878       -1.3957049534      -11.6087655984  MEMB      103             0.0000000000
     11852       103  SAPI      H7Y             9.9641691352       -1.6501501083      -11.8456850190  MEMB      103             0.0000000000
     11853       103  SAPI      C38            10.7553201798       -2.1533399341       -9.8648862500  MEMB      103             0.0000000000
     11854       103  SAPI      H8X             9.8122899581       -2.0759470309       -9.2942431533  MEMB      103             0.0000000000
     11855       103  SAPI      H8Y            11.5972954604       -1.7698842395       -9.2512873411  MEMB      103             0.0000000000
     11856       103  SAPI      C39            11.0456889379       -3.6151626680      -10.1501447328  MEMB      103             0.0000000000
     11857       103  SAPI      H9X            12.0568722037       -3.5722758866      -10.5351651598  MEMB      103             0.0000000000
     11858       103  SAPI      H9Y            10.4805617830       -4.0187122900      -11.0076177279  MEMB      103             0.0000000000
     11859       103  SAPI      C310           11.0296380246       -4.5366466419       -8.9183261647  MEMB      103             0.0000000000
     11860       103  SAPI      H10X           11.5733044434       -4.0803697447       -8.0673411621  MEMB      103             0.0000000000
     11861       103  SAPI      H10Y           11.6169576291       -5.4135948774       -9.2365082092  MEMB      103             0.0000000000
     11862       103  SAPI      C311            9.6399685831       -4.9761917692       -8.4352381854  MEMB      103             0.0000000000
     11863       103  SAPI      H11X            9.0550074093       -5.2489214324       -9.3400354388  MEMB      103             0.0000000000
     11864       103  SAPI      H11Y            9.1573134164       -4.1022557756       -7.9498750365  MEMB      103             0.0000000000
     11865       103  SAPI      C312            9.5999198783       -6.1970076360       -7.4848739919  MEMB      103             0.0000000000
     11866       103  SAPI      H12X           10.0127131830       -7.0585729509       -8.0497639321  MEMB      103             0.0000000000
     11867       103  SAPI      H12Y            8.5671485688       -6.4954410412       -7.2042581670  MEMB      103             0.0000000000
     11868       103  SAPI      C313           10.3726092227       -6.0495034355       -6.1713932379  MEMB      103             0.0000000000
     11869       103  SAPI      H13X           11.3993984439       -5.7398816619       -6.4164598507  MEMB      103             0.0000000000
     11870       103  SAPI      H13Y           10.4105636918       -7.0420692522       -5.6684626457  MEMB      103             0.0000000000
     11871       103  SAPI      C314            9.7913615673       -5.0395620521       -5.1804644068  MEMB      103             0.0000000000
     11872       103  SAPI      H14X            9.5620162859       -4.0757071736       -5.6794278487  MEMB      103             0.0000000000
     11873       103  SAPI      H14Y           10.5666497523       -4.8075544679       -4.4359957628  MEMB      103             0.0000000000
     11874       103  SAPI      C315            8.5604120557       -5.5343020551       -4.4142577511  MEMB      103             0.0000000000
     11875       103  SAPI      H15X            8.7353611244       -6.5329572319       -3.9549539327  MEMB      103             0.0000000000
     11876       103  SAPI      H15Y            7.7879213473       -5.6990852950       -5.1978657004  MEMB      103             0.0000000000
     11877       103  SAPI      C316            8.1408227907       -4.4709100526       -3.3670168236  MEMB      103             0.0000000000
     11878       103  SAPI      H16X            7.1730439087       -4.6831960062       -2.8734485417  MEMB      103             0.0000000000
     11879       103  SAPI      H16Y            7.9747031898       -3.5253911883       -3.9226336215  MEMB      103             0.0000000000
     11880       103  SAPI      C317            9.1366392251       -4.1826428501       -2.2197065932  MEMB      103             0.0000000000
     11881       103  SAPI      H17X            8.8058877242       -3.2560494182       -1.7050296436  MEMB      103             0.0000000000
     11882       103  SAPI      H17Y           10.1369536120       -3.9329926328       -2.5953956139  MEMB      103             0.0000000000
     11883       103  SAPI      C318            9.1696041309       -5.2940539109       -1.1716944470  MEMB      103             0.0000000000
     11884       103  SAPI      H18X            9.5393236505       -4.9473544944       -0.1801177758  MEMB      103             0.0000000000
     11885       103  SAPI      H18Y            9.8165005201       -6.1379498421       -1.4966711996  MEMB      103             0.0000000000
     11886       103  SAPI      H18Z            8.1265350213       -5.6385187195       -1.0441137927  MEMB      103             0.0000000000
     11887       104  SAPS      N              -8.4025680310       -3.3785873970      -20.9067656031  MEMB      104             0.0000000000
     11888       104  SAPS      HN1            -8.6196510306       -2.8843900485      -21.8015056125  MEMB      104             0.0000000000
     11889       104  SAPS      HN2            -7.4353000608       -3.1518852022      -20.5949189266  MEMB      104             0.0000000000
     11890       104  SAPS      HN3            -8.5503066125       -4.4108402524      -20.9826316872  MEMB      104             0.0000000000
     11891       104  SAPS      C12            -9.4210071275       -2.9370573858      -19.8736658205  MEMB      104             0.0000000000
     11892       104  SAPS      H12A           -9.1708253594       -3.4380149783      -18.9588183601  MEMB      104             0.0000000000
     11893       104  SAPS      C13            -9.4447123501       -1.4648769436      -19.4868174842  MEMB      104             0.0000000000
     11894       104  SAPS      O13A           -8.6892664956       -0.7694992503      -20.1730189310  MEMB      104             0.0000000000
     11895       104  SAPS      O13B          -10.3882800045       -0.9851940404      -18.8133772255  MEMB      104             0.0000000000
     11896       104  SAPS      C11           -10.8448488286       -3.2745793377      -20.3932967897  MEMB      104             0.0000000000
     11897       104  SAPS      H11A          -11.1548730066       -2.5375803061      -21.1712818173  MEMB      104             0.0000000000
     11898       104  SAPS      H11B          -11.5481303859       -3.1183653267      -19.5373147906  MEMB      104             0.0000000000
     11899       104  SAPS      P             -10.7358469631       -5.8507041254      -19.9785091165  MEMB      104             0.0000000000
     11900       104  SAPS      O13           -11.6095910842       -6.8702106758      -20.5564490187  MEMB      104             0.0000000000
     11901       104  SAPS      O14            -9.2788892886       -6.0785593398      -19.8670205187  MEMB      104             0.0000000000
     11902       104  SAPS      O12           -10.9174515395       -4.5907427159      -20.9498448733  MEMB      104             0.0000000000
     11903       104  SAPS      O11           -11.3608382328       -5.3286746489      -18.6586028795  MEMB      104             0.0000000000
     11904       104  SAPS      C1            -12.1748317169       -6.0981613542      -17.7935909749  MEMB      104             0.0000000000
     11905       104  SAPS      HA            -13.1306202960       -6.3640961533      -18.2879774059  MEMB      104             0.0000000000
     11906       104  SAPS      HB            -11.6550058570       -7.0468138557      -17.4905699370  MEMB      104             0.0000000000
     11907       104  SAPS      C2            -12.4262527030       -5.1468610630      -16.6117292041  MEMB      104             0.0000000000
     11908       104  SAPS      HS            -12.8602983201       -4.1958525361      -16.9629325109  MEMB      104             0.0000000000
     11909       104  SAPS      O21           -11.1628091409       -5.0396859054      -15.9361777277  MEMB      104             0.0000000000
     11910       104  SAPS      C21           -10.5242453516       -3.9461206084      -16.2345649617  MEMB      104             0.0000000000
     11911       104  SAPS      O22           -10.9213236196       -3.0369476773      -16.9246205521  MEMB      104             0.0000000000
     11912       104  SAPS      C22            -9.2935139783       -3.8737134112      -15.4012419106  MEMB      104             0.0000000000
     11913       104  SAPS      H2R            -8.6330892672       -4.7325776971      -15.6761574173  MEMB      104             0.0000000000
     11914       104  SAPS      H2S            -8.7720648485       -2.9177582835      -15.5939783189  MEMB      104             0.0000000000
     11915       104  SAPS      C3            -13.4490874777       -5.5218544454      -15.5766386408  MEMB      104             0.0000000000
     11916       104  SAPS      HX            -13.3933209662       -6.5336155775      -15.7776420532  MEMB      104             0.0000000000
     11917       104  SAPS      HY            -14.5456872071       -5.6316801205      -15.7565474248  MEMB      104             0.0000000000
     11918       104  SAPS      O31           -12.8855147328       -5.2412490195      -14.2341672173  MEMB      104             0.0000000000
     11919       104  SAPS      C31           -13.6537750686       -4.4519802445      -13.6786906354  MEMB      104             0.0000000000
     11920       104  SAPS      O32           -14.6577459261       -4.0581090406      -14.1613027082  MEMB      104             0.0000000000
     11921       104  SAPS      C32           -13.3352655982       -3.9762776275      -12.3482035773  MEMB      104             0.0000000000
     11922       104  SAPS      H2X           -12.2857858738       -4.2086044268      -12.1481913840  MEMB      104             0.0000000000
     11923       104  SAPS      H2Y           -14.1133586395       -4.3132639106      -11.6373867965  MEMB      104             0.0000000000
     11924       104  SAPS      C23            -9.6739835220       -3.8608839258      -13.9236869395  MEMB      104             0.0000000000
     11925       104  SAPS      H3R           -10.4060509471       -4.7009995474      -13.8243178377  MEMB      104             0.0000000000
     11926       104  SAPS      H3S           -10.2116625892       -3.0277842244      -13.4937021460  MEMB      104             0.0000000000
     11927       104  SAPS      C24            -8.3093023671       -3.8165751002      -13.1847808126  MEMB      104             0.0000000000
     11928       104  SAPS      H4R            -7.6914593086       -3.0074549664      -13.4903974726  MEMB      104             0.0000000000
     11929       104  SAPS      H4S            -7.8068916014       -4.5800726291      -13.7470443083  MEMB      104             0.0000000000
     11930       104  SAPS      C25            -7.9074263750       -3.8443674059      -11.7244006335  MEMB      104             0.0000000000
     11931       104  SAPS      H5R            -8.8113335813       -3.2524278174      -11.2893606030  MEMB      104             0.0000000000
     11932       104  SAPS      C26            -7.3848810424       -4.9262762017      -10.9194812716  MEMB      104             0.0000000000
     11933       104  SAPS      H6R            -8.0836186631       -4.5521995040      -10.0509030378  MEMB      104             0.0000000000
     11934       104  SAPS      C27            -7.0039425047       -6.8584329833      -11.1031028280  MEMB      104             0.0000000000
     11935       104  SAPS      H7R            -6.6873237818       -7.0875865067      -10.1538606187  MEMB      104             0.0000000000
     11936       104  SAPS      H7S            -6.3489836536       -6.4926238707      -11.7175145031  MEMB      104             0.0000000000
     11937       104  SAPS      C28            -8.3654955391       -8.3455082059      -11.6880347946  MEMB      104             0.0000000000
     11938       104  SAPS      H8R            -8.4037387886       -8.8321948005      -12.6531874564  MEMB      104             0.0000000000
     11939       104  SAPS      C29            -9.8657961331       -8.5295375147      -11.1573715205  MEMB      104             0.0000000000
     11940       104  SAPS      H9R           -10.3285573326       -9.4070440509      -11.4689205354  MEMB      104             0.0000000000
     11941       104  SAPS      C210          -10.8475280255       -7.8338581305       -9.6905597556  MEMB      104             0.0000000000
     11942       104  SAPS      H10R          -10.2278231288       -7.5569568167       -8.7324701696  MEMB      104             0.0000000000
     11943       104  SAPS      H10S          -11.0631192361       -8.5757569818       -8.8886043434  MEMB      104             0.0000000000
     11944       104  SAPS      C211          -11.5152504048       -6.3880728508       -9.3673860884  MEMB      104             0.0000000000
     11945       104  SAPS      H11R          -11.6232018768       -5.8211653296      -10.2948942353  MEMB      104             0.0000000000
     11946       104  SAPS      C212          -11.5926802966       -5.6261675073       -8.2605165961  MEMB      104             0.0000000000
     11947       104  SAPS      H12R          -12.1615612537       -4.6895719111       -8.3168536453  MEMB      104             0.0000000000
     11948       104  SAPS      C213          -11.0321203654       -5.9673777562       -6.9203465209  MEMB      104             0.0000000000
     11949       104  SAPS      H13R          -10.6287880334       -5.0916519632       -6.4073780917  MEMB      104             0.0000000000
     11950       104  SAPS      H13S          -10.2338171991       -6.7400835344       -6.9352310494  MEMB      104             0.0000000000
     11951       104  SAPS      C214          -12.0270156565       -6.5719839918       -6.0616680152  MEMB      104             0.0000000000
     11952       104  SAPS      H14R          -11.8602045710       -7.6393353112       -6.1461043940  MEMB      104             0.0000000000
     11953       104  SAPS      C215          -13.0598132772       -6.0603173379       -5.3804706974  MEMB      104             0.0000000000
     11954       104  SAPS      H15R          -13.8126699736       -6.7396069337       -4.9439517985  MEMB      104             0.0000000000
     11955       104  SAPS      C216          -13.4262637222       -4.6228123570       -5.4093678962  MEMB      104             0.0000000000
     11956       104  SAPS      H16R          -14.5330772111       -4.5067737158       -5.4441591534  MEMB      104             0.0000000000
     11957       104  SAPS      H16S          -13.0564680812       -4.2111007805       -6.3722400040  MEMB      104             0.0000000000
     11958       104  SAPS      C217          -12.9699574246       -3.7328682597       -4.3078804410  MEMB      104             0.0000000000
     11959       104  SAPS      H17R          -13.3348097841       -4.0733717571       -3.3123803057  MEMB      104             0.0000000000
     11960       104  SAPS      H17S          -13.4727555455       -2.7679584797       -4.5670869693  MEMB      104             0.0000000000
     11961       104  SAPS      C218          -11.4700031504       -3.5146124524       -4.3567687612  MEMB      104             0.0000000000
     11962       104  SAPS      H18R          -11.2180321341       -2.9611537586       -5.2938284639  MEMB      104             0.0000000000
     11963       104  SAPS      H18S          -10.8729438919       -4.4479713847       -4.3705512389  MEMB      104             0.0000000000
     11964       104  SAPS      C219          -11.0632673473       -2.6540282690       -3.1890114259  MEMB      104             0.0000000000
     11965       104  SAPS      H19R          -11.8816021866       -1.9212189244       -3.0900198689  MEMB      104             0.0000000000
     11966       104  SAPS      H19S          -10.0966920650       -2.1762242058       -3.4648575064  MEMB      104             0.0000000000
     11967       104  SAPS      C220          -11.0325853491       -3.2979054727       -1.8176558281  MEMB      104             0.0000000000
     11968       104  SAPS      H20R          -12.0698350379       -3.4707898996       -1.4510062633  MEMB      104             0.0000000000
     11969       104  SAPS      H20S          -10.5723013566       -2.5839061661       -1.1056892908  MEMB      104             0.0000000000
     11970       104  SAPS      H20T          -10.4715447936       -4.2512002897       -1.8390492842  MEMB      104             0.0000000000
     11971       104  SAPS      C33           -13.4286794865       -2.4974683589      -12.3333775914  MEMB      104             0.0000000000
     11972       104  SAPS      H3X           -14.3639732716       -2.0501111578      -12.6479745313  MEMB      104             0.0000000000
     11973       104  SAPS      H3Y           -12.6325522178       -2.2344496610      -13.0898514167  MEMB      104             0.0000000000
     11974       104  SAPS      C34           -13.3988201516       -1.9259721085      -10.9129102651  MEMB      104             0.0000000000
     11975       104  SAPS      H4X           -14.3772346739       -1.9585004037      -10.4015897768  MEMB      104             0.0000000000
     11976       104  SAPS      H4Y           -13.3524972959       -0.8539542688      -10.7922434964  MEMB      104             0.0000000000
     11977       104  SAPS      C35           -12.0344356146       -2.1060860914      -10.2941057891  MEMB      104             0.0000000000
     11978       104  SAPS      H5X           -11.2282243452       -1.6405049479      -10.9262146790  MEMB      104             0.0000000000
     11979       104  SAPS      H5Y           -11.8793332016       -3.1806135859      -10.2757113526  MEMB      104             0.0000000000
     11980       104  SAPS      C36           -12.0057910839       -1.5024251348       -8.9116368323  MEMB      104             0.0000000000
     11981       104  SAPS      H6X           -12.9872061062       -1.5583503627       -8.4107128210  MEMB      104             0.0000000000
     11982       104  SAPS      H6Y           -11.7754150057       -0.4618298761       -8.9875213645  MEMB      104             0.0000000000
     11983       104  SAPS      C37           -10.7669849224       -1.6559963121       -8.0806707969  MEMB      104             0.0000000000
     11984       104  SAPS      H7X           -10.5743210913       -2.7002873135       -7.8935735699  MEMB      104             0.0000000000
     11985       104  SAPS      H7Y           -10.9376499546       -1.1615164647       -7.1011681643  MEMB      104             0.0000000000
     11986       104  SAPS      C38            -9.5660225584       -0.9883097653       -8.7161880313  MEMB      104             0.0000000000
     11987       104  SAPS      H8X            -9.8086967752        0.0836979122       -8.8316115049  MEMB      104             0.0000000000
     11988       104  SAPS      H8Y            -9.2639099509       -1.2929489422       -9.7239334825  MEMB      104             0.0000000000
     11989       104  SAPS      C39            -8.3835341180       -1.0189573402       -7.8032685670  MEMB      104             0.0000000000
     11990       104  SAPS      H9X            -8.8327005923       -0.4382922563       -6.9782619868  MEMB      104             0.0000000000
     11991       104  SAPS      H9Y            -7.4787238212       -0.7058242144       -8.3771817290  MEMB      104             0.0000000000
     11992       104  SAPS      C310           -7.9611016507       -2.0812197026       -6.8835758790  MEMB      104             0.0000000000
     11993       104  SAPS      H10X           -8.7386986364       -2.1800521940       -6.0913789415  MEMB      104             0.0000000000
     11994       104  SAPS      H10Y           -7.0072662684       -1.7313830610       -6.4023423181  MEMB      104             0.0000000000
     11995       104  SAPS      C311           -7.7708119529       -3.2168988138       -7.8054962459  MEMB      104             0.0000000000
     11996       104  SAPS      H11X           -6.9457910902       -2.9972969254       -8.5296647877  MEMB      104             0.0000000000
     11997       104  SAPS      H11Y           -8.7160340861       -3.4216062892       -8.3270461014  MEMB      104             0.0000000000
     11998       104  SAPS      C312           -7.5392305086       -4.4693550665       -7.1090147739  MEMB      104             0.0000000000
     11999       104  SAPS      H12X           -7.2289202241       -5.1862882601       -7.8995431906  MEMB      104             0.0000000000
     12000       104  SAPS      H12Y           -8.3357419744       -4.8192521313       -6.4506983911  MEMB      104             0.0000000000
     12001       104  SAPS      C313           -6.4913561345       -4.2601379894       -6.1881709067  MEMB      104             0.0000000000
     12002       104  SAPS      H13X           -6.2803373914       -3.3267410705       -5.6139008417  MEMB      104             0.0000000000
     12003       104  SAPS      H13Y           -5.7122336485       -4.4918334342       -6.9262763108  MEMB      104             0.0000000000
     12004       104  SAPS      C314           -6.4233411436       -5.2072212496       -5.1471165945  MEMB      104             0.0000000000
     12005       104  SAPS      H14X           -5.3395279663       -5.1158518590       -5.1251668952  MEMB      104             0.0000000000
     12006       104  SAPS      H14Y           -6.1191398143       -6.1578133339       -5.0999311988  MEMB      104             0.0000000000
     12007       104  SAPS      C315           -7.5156205838       -5.6852815903       -4.2172326096  MEMB      104             0.0000000000
     12008       104  SAPS      H15X           -7.8972912598       -6.6035453214       -4.7398367760  MEMB      104             0.0000000000
     12009       104  SAPS      H15Y           -8.0559141257       -4.7323483468       -4.2882865273  MEMB      104             0.0000000000
     12010       104  SAPS      C316           -7.2920165994       -5.9943643631       -2.7121705868  MEMB      104             0.0000000000
     12011       104  SAPS      H16X           -7.1911349234       -5.0115788737       -2.2039030599  MEMB      104             0.0000000000
     12012       104  SAPS      H16Y           -6.4711196446       -6.6608952321       -2.3663055591  MEMB      104             0.0000000000
     12013       104  SAPS      C317           -8.4040753730       -6.6166851784       -2.0883048895  MEMB      104             0.0000000000
     12014       104  SAPS      H17X           -8.3058138130       -7.5576072929       -2.6812032773  MEMB      104             0.0000000000
     12015       104  SAPS      H17Y           -9.1073037214       -5.8075833771       -2.3973522141  MEMB      104             0.0000000000
     12016       104  SAPS      C318           -8.1501473860       -6.7405791087       -0.6012845942  MEMB      104             0.0000000000
     12017       104  SAPS      H18X           -9.0849586038       -7.1286355459       -0.1641981915  MEMB      104             0.0000000000
     12018       104  SAPS      H18Y           -7.9298897983       -5.7345425363       -0.1739035626  MEMB      104             0.0000000000
     12019       104  SAPS      H18Z           -7.2899371693       -7.4177026360       -0.3687313477  MEMB      104             0.0000000000
     12020       105  OSM       N              -7.8175461465        8.1636060262      -22.0688103325  MEMB      105             0.0000000000
     12021       105  OSM       C15            -9.0670567829        8.2337133921      -22.8477727614  MEMB      105             0.0000000000
     12022       105  OSM       H15A           -9.9156089405        7.9814924396      -22.2271143179  MEMB      105             0.0000000000
     12023       105  OSM       H15B           -9.0452145824        7.5768097616      -23.6935938829  MEMB      105             0.0000000000
     12024       105  OSM       H15C           -9.2006886843        9.2542061726      -23.1947940055  MEMB      105             0.0000000000
     12025       105  OSM       C14            -7.4066131472        6.7548692681      -21.8609876989  MEMB      105             0.0000000000
     12026       105  OSM       H14A           -6.4597236794        6.7319572086      -21.3131520663  MEMB      105             0.0000000000
     12027       105  OSM       H14B           -7.2605988842        6.2724732980      -22.8100790877  MEMB      105             0.0000000000
     12028       105  OSM       H14C           -8.1804297992        6.2313667865      -21.3101195494  MEMB      105             0.0000000000
     12029       105  OSM       C13            -6.7237365928        8.9265532866      -22.7360132668  MEMB      105             0.0000000000
     12030       105  OSM       H13A           -5.7795661019        8.8707780575      -22.1836779710  MEMB      105             0.0000000000
     12031       105  OSM       H13B           -7.0055054826        9.9779946338      -22.6649682515  MEMB      105             0.0000000000
     12032       105  OSM       H13C           -6.5476776728        8.6610971188      -23.7619727597  MEMB      105             0.0000000000
     12033       105  OSM       C12            -8.1471256591        8.7355938508      -20.7040128940  MEMB      105             0.0000000000
     12034       105  OSM       H12A           -7.2813389989        8.6265593027      -20.0603148685  MEMB      105             0.0000000000
     12035       105  OSM       H12B           -8.9762389268        8.1545834262      -20.3070714769  MEMB      105             0.0000000000
     12036       105  OSM       C11            -8.6030141867       10.1967802320      -20.6048096192  MEMB      105             0.0000000000
     12037       105  OSM       H11A           -8.8802767055       10.3225015351      -19.5201651048  MEMB      105             0.0000000000
     12038       105  OSM       H11B           -9.5363692276       10.3674670760      -21.1892084670  MEMB      105             0.0000000000
     12039       105  OSM       P              -7.1348777240       12.2272269150      -20.0500613585  MEMB      105             0.0000000000
     12040       105  OSM       O13            -5.9539292563       12.9449279479      -20.6079645750  MEMB      105             0.0000000000
     12041       105  OSM       O14            -8.3334520535       13.0126921811      -19.7009298898  MEMB      105             0.0000000000
     12042       105  OSM       O11            -6.6646064932       11.3579143077      -18.7991670734  MEMB      105             0.0000000000
     12043       105  OSM       O12            -7.5576874700       11.0735176149      -21.0540545731  MEMB      105             0.0000000000
     12044       105  OSM       C1S            -5.6256146679       11.8698935408      -17.9733230943  MEMB      105             0.0000000000
     12045       105  OSM       H1S            -5.6226326350       12.9912243994      -17.9603681397  MEMB      105             0.0000000000
     12046       105  OSM       H1T            -4.6316859909       11.5371172608      -18.3473277158  MEMB      105             0.0000000000
     12047       105  OSM       NF             -4.6808040022       11.8511528664      -15.8016731575  MEMB      105             0.0000000000
     12048       105  OSM       HNF            -3.9230518995       11.2201569088      -15.7383981844  MEMB      105             0.0000000000
     12049       105  OSM       C2S            -5.7959470307       11.3919046674      -16.5135193160  MEMB      105             0.0000000000
     12050       105  OSM       H2S            -6.7172429248       11.8565008479      -16.1068847307  MEMB      105             0.0000000000
     12051       105  OSM       C3S            -5.8320084799        9.8531142336      -16.3309432209  MEMB      105             0.0000000000
     12052       105  OSM       H3S            -4.8620146208        9.4210496089      -16.6269828579  MEMB      105             0.0000000000
     12053       105  OSM       O3             -6.7961559211        9.1928687069      -17.1298237792  MEMB      105             0.0000000000
     12054       105  OSM       HO3            -6.9772145964        9.8391281623      -17.8306539000  MEMB      105             0.0000000000
     12055       105  OSM       C4S            -6.0658197262        9.5202019281      -14.8738513044  MEMB      105             0.0000000000
     12056       105  OSM       H4S            -7.0892655829        9.6060876328      -14.5182216708  MEMB      105             0.0000000000
     12057       105  OSM       C5S            -5.1743325349        9.0293147377      -14.0000310800  MEMB      105             0.0000000000
     12058       105  OSM       H5S            -4.1832666320        8.8149059447      -14.3375698889  MEMB      105             0.0000000000
     12059       105  OSM       C6S            -5.4228971210        8.7074042329      -12.5587355831  MEMB      105             0.0000000000
     12060       105  OSM       H6S            -4.4972197356        8.3434456243      -12.0526028486  MEMB      105             0.0000000000
     12061       105  OSM       H6T            -6.2002197416        7.9198819548      -12.4954810503  MEMB      105             0.0000000000
     12062       105  OSM       C7S            -5.9317282927        9.9777059154      -11.8734891185  MEMB      105             0.0000000000
     12063       105  OSM       H7S            -6.8861184332       10.2472237840      -12.3852505722  MEMB      105             0.0000000000
     12064       105  OSM       H7T            -5.2104296502       10.8142872098      -12.0042273723  MEMB      105             0.0000000000
     12065       105  OSM       C8S            -6.2821238457        9.8227889396      -10.3945053236  MEMB      105             0.0000000000
     12066       105  OSM       H8S            -6.8337458566        8.8736375451      -10.2353228523  MEMB      105             0.0000000000
     12067       105  OSM       H8T            -6.9850838627       10.6418679716      -10.1435659246  MEMB      105             0.0000000000
     12068       105  OSM       C9S            -5.1067237069        9.8500163149       -9.4245114430  MEMB      105             0.0000000000
     12069       105  OSM       H9S            -4.5865035491       10.8290435746       -9.4107878579  MEMB      105             0.0000000000
     12070       105  OSM       H9T            -4.3476700274        9.1048535423       -9.7341977753  MEMB      105             0.0000000000
     12071       105  OSM       C10S           -5.6000245305        9.4831470239       -8.0345223500  MEMB      105             0.0000000000
     12072       105  OSM       H10S           -6.1527618867        8.5264688535       -8.0176590537  MEMB      105             0.0000000000
     12073       105  OSM       H10T           -6.2479271728       10.2875942371       -7.6165872561  MEMB      105             0.0000000000
     12074       105  OSM       C11S           -4.4560749162        9.3162200551       -7.1293869535  MEMB      105             0.0000000000
     12075       105  OSM       H11S           -3.5687436886        8.8375341398       -7.5902268456  MEMB      105             0.0000000000
     12076       105  OSM       H11T           -4.7790145792        8.5488291044       -6.3772034313  MEMB      105             0.0000000000
     12077       105  OSM       C12S           -4.0537885601       10.7443227320       -6.7520229286  MEMB      105             0.0000000000
     12078       105  OSM       H12S           -4.7665655588       11.3651776159       -6.1508308344  MEMB      105             0.0000000000
     12079       105  OSM       H12T           -3.4502210737       11.3147412057       -7.4651683524  MEMB      105             0.0000000000
     12080       105  OSM       C13S           -2.9813717415       10.5777490309       -5.8854833079  MEMB      105             0.0000000000
     12081       105  OSM       H13S           -2.3974808665       11.4800940239       -5.6609669637  MEMB      105             0.0000000000
     12082       105  OSM       H13T           -2.2855466453        9.8918552513       -6.3935585453  MEMB      105             0.0000000000
     12083       105  OSM       C14S           -3.9075914796       10.0228814765       -4.8936145495  MEMB      105             0.0000000000
     12084       105  OSM       H14S           -3.5097801024        8.9771025434       -4.5225804265  MEMB      105             0.0000000000
     12085       105  OSM       H14T           -4.0226519083        8.9196350624       -4.8939668143  MEMB      105             0.0000000000
     12086       105  OSM       C15S           -4.8682928593       11.0613948689       -3.7876759920  MEMB      105             0.0000000000
     12087       105  OSM       H15S           -5.8152303300       10.6880193118       -4.1587480939  MEMB      105             0.0000000000
     12088       105  OSM       H15T           -4.4028120371       12.0286963702       -4.0587153166  MEMB      105             0.0000000000
     12089       105  OSM       C16S           -5.1628095551       11.1266920161       -2.0303863787  MEMB      105             0.0000000000
     12090       105  OSM       H16S           -5.5107821654       12.1455873692       -1.7956092487  MEMB      105             0.0000000000
     12091       105  OSM       H16T           -4.2196694593       11.4670235220       -1.4528262524  MEMB      105             0.0000000000
     12092       105  OSM       C17S           -5.8088297723        9.8640124714       -1.1397536171  MEMB      105             0.0000000000
     12093       105  OSM       H17S           -5.7043729000        8.7346017750       -1.2742819746  MEMB      105             0.0000000000
     12094       105  OSM       H17T           -6.8017759165        9.4564524445       -1.2004766079  MEMB      105             0.0000000000
     12095       105  OSM       C18S           -5.0034519778        9.5268259946        0.0319804671  MEMB      105             0.0000000000
     12096       105  OSM       H18S           -4.0003012016        9.9838638469        0.3052618923  MEMB      105             0.0000000000
     12097       105  OSM       H18T           -4.8386141797        8.4287891174        0.3586717360  MEMB      105             0.0000000000
     12098       105  OSM       H18U           -5.7643619661       10.1062562312        0.4778213593  MEMB      105             0.0000000000
     12099       105  OSM       C1F            -4.4834693191       13.0162214299      -15.3195580079  MEMB      105             0.0000000000
     12100       105  OSM       OF             -5.2568698105       13.9661971221      -15.3488102404  MEMB      105             0.0000000000
     12101       105  OSM       C2F            -3.1122485573       13.0287704006      -14.8517417152  MEMB      105             0.0000000000
     12102       105  OSM       H2F            -2.6304881004       13.4278424039      -15.7498702559  MEMB      105             0.0000000000
     12103       105  OSM       H2G            -2.5472547828       12.1156419420      -14.7268317010  MEMB      105             0.0000000000
     12104       105  OSM       C3F            -3.0376803758       13.7804538848      -13.5657834255  MEMB      105             0.0000000000
     12105       105  OSM       H3F            -3.6330870093       14.6917468722      -13.8177352044  MEMB      105             0.0000000000
     12106       105  OSM       H3G            -1.9689666597       14.0173904131      -13.3840698466  MEMB      105             0.0000000000
     12107       105  OSM       C4F            -3.6443797745       13.1511512542      -12.3762470453  MEMB      105             0.0000000000
     12108       105  OSM       H4F            -2.9219519686       12.3726716305      -12.0372679215  MEMB      105             0.0000000000
     12109       105  OSM       H4G            -4.6857106804       12.9123874788      -12.5965811380  MEMB      105             0.0000000000
     12110       105  OSM       C5F            -3.7789596157       14.0904886560      -11.2637841198  MEMB      105             0.0000000000
     12111       105  OSM       H5F            -4.1538900006       15.0501224218      -11.5971345485  MEMB      105             0.0000000000
     12112       105  OSM       H5G            -2.7129276924       13.9930515301      -11.0258865576  MEMB      105             0.0000000000
     12113       105  OSM       C6F            -4.5971089738       13.7794495156      -10.0722665261  MEMB      105             0.0000000000
     12114       105  OSM       H6F            -4.2472307444       14.2669974188       -9.1342034497  MEMB      105             0.0000000000
     12115       105  OSM       H6G            -4.4488918586       12.7007012794       -9.9601035104  MEMB      105             0.0000000000
     12116       105  OSM       C7F            -6.0013889036       14.2934278796      -10.3266258228  MEMB      105             0.0000000000
     12117       105  OSM       H7F            -6.3047856244       14.0646116059      -11.3739951088  MEMB      105             0.0000000000
     12118       105  OSM       H7G            -6.0236271364       15.4026964293      -10.2001707544  MEMB      105             0.0000000000
     12119       105  OSM       C8F            -6.8671866629       13.5622178890       -9.3397182037  MEMB      105             0.0000000000
     12120       105  OSM       H8F            -6.4740130668       13.7811665242       -8.3189725378  MEMB      105             0.0000000000
     12121       105  OSM       H8G            -6.6774012668       12.4927355195       -9.5566681841  MEMB      105             0.0000000000
     12122       105  OSM       C9F            -8.3252265192       13.8243047879       -9.4768726035  MEMB      105             0.0000000000
     12123       105  OSM       H9F            -8.6087929507       14.6490719594      -10.1537820087  MEMB      105             0.0000000000
     12124       105  OSM       C10F           -9.2388567992       13.0159207073       -8.9140686626  MEMB      105             0.0000000000
     12125       105  OSM       H10F          -10.3038380946       13.2590708471       -9.0446954918  MEMB      105             0.0000000000
     12126       105  OSM       C11F           -8.9382474055       11.7711325962       -8.0902576102  MEMB      105             0.0000000000
     12127       105  OSM       H11F           -8.0132303107       11.2422926571       -8.4088618034  MEMB      105             0.0000000000
     12128       105  OSM       H11G           -9.7359551202       11.0365434724       -8.3142356126  MEMB      105             0.0000000000
     12129       105  OSM       C12F           -8.8813294716       12.0415084106       -6.5591859659  MEMB      105             0.0000000000
     12130       105  OSM       H12F           -9.9234155909       12.1473711365       -6.1902085414  MEMB      105             0.0000000000
     12131       105  OSM       H12G           -8.3638373878       13.0113298993       -6.3823011392  MEMB      105             0.0000000000
     12132       105  OSM       C13F           -8.1062504255       11.0414155197       -5.6647244521  MEMB      105             0.0000000000
     12133       105  OSM       H13F           -7.0247901039       11.2582541997       -5.8142049418  MEMB      105             0.0000000000
     12134       105  OSM       H13G           -8.2621828022        9.9866417070       -5.9728678423  MEMB      105             0.0000000000
     12135       105  OSM       C14F           -8.4166558933       11.2171914673       -4.1552725928  MEMB      105             0.0000000000
     12136       105  OSM       H14F           -8.0038761638       10.3476305419       -3.5838614898  MEMB      105             0.0000000000
     12137       105  OSM       H14G           -9.5197994654       11.2054179487       -4.0043640681  MEMB      105             0.0000000000
     12138       105  OSM       C15F           -7.8283644198       12.5400390077       -3.5994211267  MEMB      105             0.0000000000
     12139       105  OSM       H15F           -7.8081220276       13.3212674015       -4.3664859167  MEMB      105             0.0000000000
     12140       105  OSM       H15G           -6.7709157938       12.4087268539       -3.3527907749  MEMB      105             0.0000000000
     12141       105  OSM       C16F           -8.4616436952       13.0574598638       -2.3156673559  MEMB      105             0.0000000000
     12142       105  OSM       H16F           -9.5604184685       13.0008977604       -2.3958967813  MEMB      105             0.0000000000
     12143       105  OSM       H16G           -8.1525431915       14.1090485085       -2.0790541488  MEMB      105             0.0000000000
     12144       105  OSM       C17F           -8.0057513760       12.1031116741       -1.2519241699  MEMB      105             0.0000000000
     12145       105  OSM       H17F           -6.9855898060       12.3778454279       -0.9419474899  MEMB      105             0.0000000000
     12146       105  OSM       H17G           -8.1737266428       11.0494154062       -1.4916292784  MEMB      105             0.0000000000
     12147       105  OSM       C18F           -8.7153504900       11.9910738139       -0.0282436615  MEMB      105             0.0000000000
     12148       105  OSM       H18F           -8.5988161731       11.2793662817        0.7748884141  MEMB      105             0.0000000000
     12149       105  OSM       H18G           -9.6422998648       12.6188871073        0.0569613386  MEMB      105             0.0000000000
     12150       105  OSM       H18H           -7.8167280060       12.2848568646        0.5936577694  MEMB      105             0.0000000000
     12151       106  SOPE      N             -14.6040544257        5.8432971966      -22.1413775238  MEMB      106             0.0000000000
     12152       106  SOPE      HN1           -14.7331093782        5.5349465900      -23.1173878846  MEMB      106             0.0000000000
     12153       106  SOPE      HN2           -15.3879887687        6.4654600229      -21.8710986764  MEMB      106             0.0000000000
     12154       106  SOPE      HN3           -13.6786544069        6.3220765333      -22.0593437881  MEMB      106             0.0000000000
     12155       106  SOPE      C12           -14.6169198259        4.6482419950      -21.2581646233  MEMB      106             0.0000000000
     12156       106  SOPE      H12A          -14.4433674604        3.7575165368      -21.9064865227  MEMB      106             0.0000000000
     12157       106  SOPE      H12B          -15.6179824604        4.6086820391      -20.7863620582  MEMB      106             0.0000000000
     12158       106  SOPE      C11           -13.5350064425        4.7541827163      -20.1987029267  MEMB      106             0.0000000000
     12159       106  SOPE      H11A          -13.7265611260        3.9299588260      -19.4654028169  MEMB      106             0.0000000000
     12160       106  SOPE      H11B          -13.6212399121        5.6894496256      -19.5842142343  MEMB      106             0.0000000000
     12161       106  SOPE      P             -11.5631090424        3.1876126408      -20.9424479833  MEMB      106             0.0000000000
     12162       106  SOPE      O13           -10.1864481791        3.3534933851      -21.4789064374  MEMB      106             0.0000000000
     12163       106  SOPE      O14           -12.5219286743        2.3502018742      -21.7001492357  MEMB      106             0.0000000000
     12164       106  SOPE      O12           -12.2583005909        4.6463077678      -20.8625252137  MEMB      106             0.0000000000
     12165       106  SOPE      O11           -11.5550787439        2.8468419840      -19.3884368706  MEMB      106             0.0000000000
     12166       106  SOPE      C1            -10.9666754611        3.8725415473      -18.5656297133  MEMB      106             0.0000000000
     12167       106  SOPE      HA            -11.7297639336        4.6488832209      -18.3596455947  MEMB      106             0.0000000000
     12168       106  SOPE      HB            -10.0852262663        4.3436916127      -19.0561433126  MEMB      106             0.0000000000
     12169       106  SOPE      C2            -10.4506849307        3.4128127893      -17.1829100654  MEMB      106             0.0000000000
     12170       106  SOPE      HS             -9.5327230790        2.7896891122      -17.4000044072  MEMB      106             0.0000000000
     12171       106  SOPE      O21           -11.5355971367        2.7520931521      -16.4877105409  MEMB      106             0.0000000000
     12172       106  SOPE      C21           -11.0608901541        1.8936278456      -15.6278270668  MEMB      106             0.0000000000
     12173       106  SOPE      O22            -9.9716072275        1.3932845440      -15.6937086880  MEMB      106             0.0000000000
     12174       106  SOPE      C22           -12.1213477023        1.4676592236      -14.6725603126  MEMB      106             0.0000000000
     12175       106  SOPE      H2R           -12.7276500365        0.7874300987      -15.3025204419  MEMB      106             0.0000000000
     12176       106  SOPE      H2S           -12.7373230011        2.2827367606      -14.2667442893  MEMB      106             0.0000000000
     12177       106  SOPE      C3            -10.0350878778        4.6535917970      -16.3282954954  MEMB      106             0.0000000000
     12178       106  SOPE      HX             -9.4194382342        5.3332912809      -16.9489702541  MEMB      106             0.0000000000
     12179       106  SOPE      HY             -9.3839547335        4.4121613365      -15.4596454279  MEMB      106             0.0000000000
     12180       106  SOPE      O31           -11.2349798524        5.3626302235      -15.9589216693  MEMB      106             0.0000000000
     12181       106  SOPE      C31           -11.7401483882        5.0646059329      -14.7848274833  MEMB      106             0.0000000000
     12182       106  SOPE      O32           -11.1734714223        4.5167804322      -13.8577706645  MEMB      106             0.0000000000
     12183       106  SOPE      C32           -13.1900083842        5.4885620060      -14.7223717979  MEMB      106             0.0000000000
     12184       106  SOPE      H2X           -13.7333713467        5.0678204036      -15.5954559345  MEMB      106             0.0000000000
     12185       106  SOPE      H2Y           -13.2002741739        6.5958044115      -14.8333399560  MEMB      106             0.0000000000
     12186       106  SOPE      C23           -11.5932715600        0.6501096840      -13.5376922804  MEMB      106             0.0000000000
     12187       106  SOPE      H3R           -11.0914587236        1.1633337681      -12.7154801931  MEMB      106             0.0000000000
     12188       106  SOPE      H3S           -10.9585479299       -0.2242274336      -13.8711819636  MEMB      106             0.0000000000
     12189       106  SOPE      C24           -12.7943267199        0.0950522196      -12.8910100373  MEMB      106             0.0000000000
     12190       106  SOPE      H4R           -13.2987078750       -0.5004658654      -13.6528998012  MEMB      106             0.0000000000
     12191       106  SOPE      H4S           -12.1525008094       -0.5284442562      -12.2432753280  MEMB      106             0.0000000000
     12192       106  SOPE      C25           -13.9112858029        0.8548838228      -12.1587441417  MEMB      106             0.0000000000
     12193       106  SOPE      H5R           -14.5544869257        1.3640008173      -12.8899136143  MEMB      106             0.0000000000
     12194       106  SOPE      H5S           -14.6624327725        0.1604966871      -11.6883943565  MEMB      106             0.0000000000
     12195       106  SOPE      C26           -13.4203161598        1.8123557105      -11.0687209285  MEMB      106             0.0000000000
     12196       106  SOPE      H6R           -12.8856329331        2.6295802316      -11.5708555915  MEMB      106             0.0000000000
     12197       106  SOPE      H6S           -14.3577252369        2.0969972619      -10.5442808955  MEMB      106             0.0000000000
     12198       106  SOPE      C27           -12.4869962032        1.3571493341       -9.9580220097  MEMB      106             0.0000000000
     12199       106  SOPE      H7R           -13.1600149147        0.6388118885       -9.4293398214  MEMB      106             0.0000000000
     12200       106  SOPE      H7S           -11.5568070958        0.8735533866      -10.3625100026  MEMB      106             0.0000000000
     12201       106  SOPE      C28           -12.0905897845        2.3694815261       -8.8421924489  MEMB      106             0.0000000000
     12202       106  SOPE      H8R           -11.6192346435        3.2243533209       -9.3815728290  MEMB      106             0.0000000000
     12203       106  SOPE      H8S           -13.0223556329        2.7329809341       -8.4000287629  MEMB      106             0.0000000000
     12204       106  SOPE      C29           -11.2079021545        1.8835158569       -7.6882294237  MEMB      106             0.0000000000
     12205       106  SOPE      H91           -10.1659593079        2.1110750882       -7.6521278815  MEMB      106             0.0000000000
     12206       106  SOPE      C210          -11.3789714538        1.1996150254       -6.6007069441  MEMB      106             0.0000000000
     12207       106  SOPE      H101          -10.4576285034        0.8708459600       -6.0771062114  MEMB      106             0.0000000000
     12208       106  SOPE      C211          -12.6748830402        0.6642958830       -6.1846491392  MEMB      106             0.0000000000
     12209       106  SOPE      H11R          -12.6365053630       -0.4387982491       -6.1310073151  MEMB      106             0.0000000000
     12210       106  SOPE      H11S          -13.4340888664        0.9767890935       -6.9288228152  MEMB      106             0.0000000000
     12211       106  SOPE      C212          -12.9320544121        1.1687015295       -4.7828699618  MEMB      106             0.0000000000
     12212       106  SOPE      H12R          -13.8923340654        0.7288574633       -4.4494997964  MEMB      106             0.0000000000
     12213       106  SOPE      H12S          -12.9739923377        2.2759541641       -4.7164926237  MEMB      106             0.0000000000
     12214       106  SOPE      C213          -11.8697501485        0.7355795141       -3.7960270385  MEMB      106             0.0000000000
     12215       106  SOPE      H13R          -10.8954985727        1.2080312086       -4.0462741617  MEMB      106             0.0000000000
     12216       106  SOPE      H13S          -11.6725550808       -0.3273195939       -3.8938267339  MEMB      106             0.0000000000
     12217       106  SOPE      C214          -12.3059352798        1.0181169146       -2.3718018917  MEMB      106             0.0000000000
     12218       106  SOPE      H14R          -12.5747134276        2.0984965341       -2.2486099010  MEMB      106             0.0000000000
     12219       106  SOPE      H14S          -11.4110943123        0.6840848370       -1.8035798908  MEMB      106             0.0000000000
     12220       106  SOPE      C215          -13.4404690069        0.1844640074       -1.7973491586  MEMB      106             0.0000000000
     12221       106  SOPE      H15R          -13.0987964278       -0.8742904472       -1.7772805721  MEMB      106             0.0000000000
     12222       106  SOPE      H15S          -14.2719914430        0.3047176690       -2.4957306225  MEMB      106             0.0000000000
     12223       106  SOPE      C216          -13.9697233214        0.5831912265       -0.4090577897  MEMB      106             0.0000000000
     12224       106  SOPE      H16R          -14.2946004317        1.6244887073       -0.2943647883  MEMB      106             0.0000000000
     12225       106  SOPE      H16S          -13.1125563853        0.5872425698        0.1872374723  MEMB      106             0.0000000000
     12226       106  SOPE      C217          -15.0128262984       -0.3811349099        0.0956206031  MEMB      106             0.0000000000
     12227       106  SOPE      H17R          -15.4640295324       -0.1658320124        1.0957805611  MEMB      106             0.0000000000
     12228       106  SOPE      H17S          -14.5807011890       -1.4062657907        0.2202670734  MEMB      106             0.0000000000
     12229       106  SOPE      C218          -16.0275788915       -0.5104172837       -1.0061819370  MEMB      106             0.0000000000
     12230       106  SOPE      H18R          -16.3993425089       -1.4362684392       -0.7570442002  MEMB      106             0.0000000000
     12231       106  SOPE      H18S          -15.7261959656       -0.7651938781       -2.0249643759  MEMB      106             0.0000000000
     12232       106  SOPE      H18T          -16.8455387656        0.1721490944       -1.0550694781  MEMB      106             0.0000000000
     12233       106  SOPE      C33           -13.6720829792        4.7553232586      -13.4466292627  MEMB      106             0.0000000000
     12234       106  SOPE      H3X           -13.1582046671        5.0272670581      -12.4908190830  MEMB      106             0.0000000000
     12235       106  SOPE      H3Y           -13.9275197430        3.7126933018      -13.7214679440  MEMB      106             0.0000000000
     12236       106  SOPE      C34           -14.9860559358        5.0213378185      -12.9839965845  MEMB      106             0.0000000000
     12237       106  SOPE      H4X           -15.0102313323        4.0308331096      -12.3760457935  MEMB      106             0.0000000000
     12238       106  SOPE      H4Y           -14.7655184415        6.1211566862      -12.8382515639  MEMB      106             0.0000000000
     12239       106  SOPE      C35           -15.9546315647        4.6239434195      -11.9431083964  MEMB      106             0.0000000000
     12240       106  SOPE      H5X           -16.8705449648        4.2012650750      -12.4395017540  MEMB      106             0.0000000000
     12241       106  SOPE      H5Y           -16.7872780979        5.1821064096      -11.9162587483  MEMB      106             0.0000000000
     12242       106  SOPE      C36           -15.3164026801        5.1057167605      -10.6159484765  MEMB      106             0.0000000000
     12243       106  SOPE      H6X           -14.8367899731        6.0948256557      -10.5303427486  MEMB      106             0.0000000000
     12244       106  SOPE      H6Y           -14.5110943121        4.3354938621      -10.5332604521  MEMB      106             0.0000000000
     12245       106  SOPE      C37           -16.1870373946        4.9852205244       -9.4445456309  MEMB      106             0.0000000000
     12246       106  SOPE      H7X           -16.4049527158        4.1033536839       -9.9108742959  MEMB      106             0.0000000000
     12247       106  SOPE      H7Y           -17.1999573677        5.4107756733       -9.4399056364  MEMB      106             0.0000000000
     12248       106  SOPE      C38           -15.4049213167        4.6885657556       -8.1744259012  MEMB      106             0.0000000000
     12249       106  SOPE      H8X           -14.9701148307        5.6806247386       -8.0312824121  MEMB      106             0.0000000000
     12250       106  SOPE      H8Y           -14.6963905679        3.8643352564       -8.3795838221  MEMB      106             0.0000000000
     12251       106  SOPE      C39           -16.0276086993        4.4507016758       -6.8118356769  MEMB      106             0.0000000000
     12252       106  SOPE      H9X           -16.3111243765        3.4218316235       -6.5780173396  MEMB      106             0.0000000000
     12253       106  SOPE      H9Y           -16.9287559001        5.1013359666       -6.7079066615  MEMB      106             0.0000000000
     12254       106  SOPE      C310          -15.1376463628        4.3214759663       -5.6518524288  MEMB      106             0.0000000000
     12255       106  SOPE      H10X          -14.9068229443        5.3728174923       -5.5267234178  MEMB      106             0.0000000000
     12256       106  SOPE      H10Y          -14.3532167797        3.5987650225       -5.9852483724  MEMB      106             0.0000000000
     12257       106  SOPE      C311          -15.8513187044        3.7950471229       -4.4186322969  MEMB      106             0.0000000000
     12258       106  SOPE      H11X          -15.2413999548        3.1765912889       -3.7669516109  MEMB      106             0.0000000000
     12259       106  SOPE      H11Y          -16.4598729037        2.9649713838       -4.8032182341  MEMB      106             0.0000000000
     12260       106  SOPE      C312          -16.6052081119        4.9244033294       -3.6877907564  MEMB      106             0.0000000000
     12261       106  SOPE      H12X          -17.3730756860        5.4399509591       -4.3198918736  MEMB      106             0.0000000000
     12262       106  SOPE      H12Y          -15.9654581267        5.7049181412       -3.2791763579  MEMB      106             0.0000000000
     12263       106  SOPE      C313          -17.2285250756        4.5354952530       -2.4084606190  MEMB      106             0.0000000000
     12264       106  SOPE      H13X          -17.5876550091        3.4660684100       -2.4261183616  MEMB      106             0.0000000000
     12265       106  SOPE      H13Y          -18.0213281614        5.2561141065       -2.0037959044  MEMB      106             0.0000000000
     12266       106  SOPE      C314          -16.6809142014        3.5990890178       -1.5139549320  MEMB      106             0.0000000000
     12267       106  SOPE      H14X          -16.3565264097        2.5070619542       -1.7334305701  MEMB      106             0.0000000000
     12268       106  SOPE      H14Y          -17.4794008907        3.9539255311       -0.7372488904  MEMB      106             0.0000000000
     12269       106  SOPE      C315          -15.6772640906        3.9868194908       -0.8761154313  MEMB      106             0.0000000000
     12270       106  SOPE      H15X          -15.8746567179        5.0552036227       -1.1648811746  MEMB      106             0.0000000000
     12271       106  SOPE      H15Y          -14.7710677531        3.9311057449       -1.3456613838  MEMB      106             0.0000000000
     12272       106  SOPE      C316          -15.7407980499        3.4971433509        0.5715347875  MEMB      106             0.0000000000
     12273       106  SOPE      H16X          -16.1894479040        2.5276337955        0.8537407464  MEMB      106             0.0000000000
     12274       106  SOPE      H16Y          -16.8698027417        3.6603527131        0.8464806550  MEMB      106             0.0000000000
     12275       106  SOPE      C317          -14.4804404555        4.5155196913        1.4008677404  MEMB      106             0.0000000000
     12276       106  SOPE      H17X          -13.8721260273        4.2006555891        0.7210929986  MEMB      106             0.0000000000
     12277       106  SOPE      H17Y          -14.4109242378        4.0034450118        2.3565435956  MEMB      106             0.0000000000
     12278       106  SOPE      C318          -14.1421648714        6.3120706091        1.6126684758  MEMB      106             0.0000000000
     12279       106  SOPE      H18X          -14.2911050029        6.9929472527        0.7499385092  MEMB      106             0.0000000000
     12280       106  SOPE      H18Y          -13.6236558445        6.7532494474        2.4569105947  MEMB      106             0.0000000000
     12281       106  SOPE      H18Z          -15.0534506325        6.8931485827        2.0586044662  MEMB      106             0.0000000000
     12282       107  OSM       N               1.4591791345      -13.4913818441      -22.3409515676  MEMB      107             0.0000000000
     12283       107  OSM       C15             1.2576487208      -13.3924465995      -23.7546639291  MEMB      107             0.0000000000
     12284       107  OSM       H15A            0.4437257797      -12.7057364540      -23.8711231532  MEMB      107             0.0000000000
     12285       107  OSM       H15B            1.0053536138      -14.3742556249      -24.0829847133  MEMB      107             0.0000000000
     12286       107  OSM       H15C            2.2115653366      -13.0582367678      -24.1814560012  MEMB      107             0.0000000000
     12287       107  OSM       C14             2.8326880097      -13.9341113497      -22.3491451430  MEMB      107             0.0000000000
     12288       107  OSM       H14A            2.8473271718      -14.1433551155      -21.2842797619  MEMB      107             0.0000000000
     12289       107  OSM       H14B            3.6243629200      -13.1750517837      -22.3689242495  MEMB      107             0.0000000000
     12290       107  OSM       H14C            3.1682327124      -14.9657528163      -22.4097478197  MEMB      107             0.0000000000
     12291       107  OSM       C13             1.1951117341      -12.0954196684      -21.7683962653  MEMB      107             0.0000000000
     12292       107  OSM       H13A            1.9341722074      -11.3218319791      -21.9405357176  MEMB      107             0.0000000000
     12293       107  OSM       H13B            1.1617712799      -12.1835481911      -20.6842718648  MEMB      107             0.0000000000
     12294       107  OSM       H13C            0.1441124958      -11.8162348735      -21.8559129740  MEMB      107             0.0000000000
     12295       107  OSM       C12             0.5825549802      -14.5075560598      -21.5942383839  MEMB      107             0.0000000000
     12296       107  OSM       H12A            0.7019058305      -14.4586260633      -20.4945853683  MEMB      107             0.0000000000
     12297       107  OSM       H12B            0.9225537590      -15.5181351858      -21.7786682157  MEMB      107             0.0000000000
     12298       107  OSM       C11            -0.8913397133      -14.2819811461      -21.8123117708  MEMB      107             0.0000000000
     12299       107  OSM       H11A           -1.5111923676      -15.0881200266      -21.3952703785  MEMB      107             0.0000000000
     12300       107  OSM       H11B           -0.9769373080      -14.2643298991      -22.9112877729  MEMB      107             0.0000000000
     12301       107  OSM       P              -1.8489030498      -12.7944379562      -19.8958652290  MEMB      107             0.0000000000
     12302       107  OSM       O13            -1.9815145483      -11.3552642617      -19.6371918535  MEMB      107             0.0000000000
     12303       107  OSM       O14            -3.0170563989      -13.6683723098      -19.6469718024  MEMB      107             0.0000000000
     12304       107  OSM       O11            -0.6644771286      -13.2759016168      -18.9760573219  MEMB      107             0.0000000000
     12305       107  OSM       O12            -1.3168419559      -13.0272392736      -21.3347601618  MEMB      107             0.0000000000
     12306       107  OSM       C1S            -1.4510681414      -13.3998811970      -17.7559399299  MEMB      107             0.0000000000
     12307       107  OSM       H1S            -2.0899511354      -14.3598005927      -17.7119522310  MEMB      107             0.0000000000
     12308       107  OSM       H1T            -1.5099477719      -12.5570353115      -17.0495201910  MEMB      107             0.0000000000
     12309       107  OSM       NF             -1.0874142260      -14.4503069764      -15.5301173222  MEMB      107             0.0000000000
     12310       107  OSM       HNF            -0.3595431687      -14.5893154082      -14.8884223651  MEMB      107             0.0000000000
     12311       107  OSM       C2S            -0.5022197619      -13.8108245719      -16.8450330593  MEMB      107             0.0000000000
     12312       107  OSM       H2S            -0.3413445082      -14.8242817263      -17.3794179672  MEMB      107             0.0000000000
     12313       107  OSM       C3S             0.8233150035      -12.3791022501      -16.4584891670  MEMB      107             0.0000000000
     12314       107  OSM       H3S             0.6217609817      -11.6135481704      -15.8260738647  MEMB      107             0.0000000000
     12315       107  OSM       O3              1.6656897652      -11.8510084552      -17.4764395376  MEMB      107             0.0000000000
     12316       107  OSM       HO3             1.6929628965      -12.6058487568      -18.0876658904  MEMB      107             0.0000000000
     12317       107  OSM       C4S             2.1211959177      -12.7524098832      -15.5478435118  MEMB      107             0.0000000000
     12318       107  OSM       H4S             2.6604252333      -13.2506612472      -16.3239181225  MEMB      107             0.0000000000
     12319       107  OSM       C5S             2.3984690461      -12.9517060241      -14.1788294897  MEMB      107             0.0000000000
     12320       107  OSM       H5S             1.8920542910      -12.3217680267      -13.4869878409  MEMB      107             0.0000000000
     12321       107  OSM       C6S             3.5421719970      -13.4882428852      -13.2926119707  MEMB      107             0.0000000000
     12322       107  OSM       H6S             4.5814540798      -13.1269253835      -13.2752114587  MEMB      107             0.0000000000
     12323       107  OSM       H6T             3.6354005763      -14.5204404327      -13.6648406601  MEMB      107             0.0000000000
     12324       107  OSM       C7S             3.1202877297      -13.9914869400      -11.8780217952  MEMB      107             0.0000000000
     12325       107  OSM       H7S             2.8791742902      -13.0321609734      -11.4453313564  MEMB      107             0.0000000000
     12326       107  OSM       H7T             3.9607473866      -14.4256695584      -11.2855363061  MEMB      107             0.0000000000
     12327       107  OSM       C8S             1.8848222380      -14.9061269221      -11.7126400133  MEMB      107             0.0000000000
     12328       107  OSM       H8S             1.8205431596      -15.5468111863      -12.6003754017  MEMB      107             0.0000000000
     12329       107  OSM       H8T             0.9446464235      -14.4938772189      -12.0488228130  MEMB      107             0.0000000000
     12330       107  OSM       C9S             1.9447632342      -15.6972188263      -10.3514293676  MEMB      107             0.0000000000
     12331       107  OSM       H9S             3.0152230507      -15.8653489011      -10.0221291552  MEMB      107             0.0000000000
     12332       107  OSM       H9T             1.3921406422      -16.6757429635      -10.3282248703  MEMB      107             0.0000000000
     12333       107  OSM       C10S            1.4540120383      -15.1847206758       -9.1117612464  MEMB      107             0.0000000000
     12334       107  OSM       H10S            0.3657311445      -15.2636173287       -9.3162516058  MEMB      107             0.0000000000
     12335       107  OSM       H10T            1.9955464522      -14.2188865855       -9.1387747446  MEMB      107             0.0000000000
     12336       107  OSM       C11S            1.9590076494      -16.0351292649       -7.9590890310  MEMB      107             0.0000000000
     12337       107  OSM       H11S            3.0761563621      -16.0050976543       -7.9407439661  MEMB      107             0.0000000000
     12338       107  OSM       H11T            1.6469498152      -17.0891845683       -7.9435529389  MEMB      107             0.0000000000
     12339       107  OSM       C12S            1.4096642457      -15.5357328108       -6.6770630892  MEMB      107             0.0000000000
     12340       107  OSM       H12S            1.4987022535      -14.4326654657       -6.7321919836  MEMB      107             0.0000000000
     12341       107  OSM       H12T            2.0825647638      -15.9567083623       -5.9071897504  MEMB      107             0.0000000000
     12342       107  OSM       C13S           -0.0068660635      -16.0438278105       -6.4160632786  MEMB      107             0.0000000000
     12343       107  OSM       H13S           -0.0593454314      -17.1453164159       -6.5894410067  MEMB      107             0.0000000000
     12344       107  OSM       H13T           -0.7486896564      -15.5278021639       -7.0643863664  MEMB      107             0.0000000000
     12345       107  OSM       C14S           -0.3965403320      -15.7755922837       -4.9797101811  MEMB      107             0.0000000000
     12346       107  OSM       H14S           -0.2901924445      -14.6785240291       -4.8109224428  MEMB      107             0.0000000000
     12347       107  OSM       H14T            0.3177215091      -16.3125492301       -4.3161974084  MEMB      107             0.0000000000
     12348       107  OSM       C15S           -1.8397274582      -16.1554007646       -4.6615370115  MEMB      107             0.0000000000
     12349       107  OSM       H15S           -1.9560855544      -17.2675298917       -4.7212403510  MEMB      107             0.0000000000
     12350       107  OSM       H15T           -2.5067833391      -15.7621490732       -5.4543252795  MEMB      107             0.0000000000
     12351       107  OSM       C16S           -2.2570481944      -15.5199611541       -3.2951353436  MEMB      107             0.0000000000
     12352       107  OSM       H16S           -3.2798174992      -15.8423875373       -2.9844950310  MEMB      107             0.0000000000
     12353       107  OSM       H16T           -2.1452849976      -14.4400555390       -3.3760397463  MEMB      107             0.0000000000
     12354       107  OSM       C17S           -1.3380095616      -15.6886749895       -2.1074710718  MEMB      107             0.0000000000
     12355       107  OSM       H17S           -1.5033734654      -15.3027953701       -1.0860433605  MEMB      107             0.0000000000
     12356       107  OSM       H17T           -0.2437777969      -15.6389985119       -2.3753016497  MEMB      107             0.0000000000
     12357       107  OSM       C18S           -1.5939497516      -16.9919518298       -1.7664063321  MEMB      107             0.0000000000
     12358       107  OSM       H18S           -2.4668316634      -17.6305542066       -1.5557751142  MEMB      107             0.0000000000
     12359       107  OSM       H18T           -0.7542059981      -17.2227694524       -1.0395197063  MEMB      107             0.0000000000
     12360       107  OSM       H18U           -1.4145905621      -17.4036657739       -2.8029658543  MEMB      107             0.0000000000
     12361       107  OSM       C1F            -1.5071122298      -15.7384934878      -15.2497446376  MEMB      107             0.0000000000
     12362       107  OSM       OF             -2.0877682923      -16.4461393469      -16.0519680033  MEMB      107             0.0000000000
     12363       107  OSM       C2F            -1.1210017523      -16.2395961489      -13.8372148648  MEMB      107             0.0000000000
     12364       107  OSM       H2F            -0.4448218415      -15.6406798991      -13.1936782048  MEMB      107             0.0000000000
     12365       107  OSM       H2G            -1.0058740051      -17.3387268754      -13.6835618319  MEMB      107             0.0000000000
     12366       107  OSM       C3F            -2.3321589160      -16.0320976500      -13.0845202928  MEMB      107             0.0000000000
     12367       107  OSM       H3F            -2.3291849272      -16.3183494264      -12.0033880133  MEMB      107             0.0000000000
     12368       107  OSM       H3G            -3.1362575263      -16.4332477973      -13.6976673117  MEMB      107             0.0000000000
     12369       107  OSM       C4F            -2.9067499158      -14.8026127972      -13.0233719311  MEMB      107             0.0000000000
     12370       107  OSM       H4F            -3.8250795150      -15.2575224383      -12.4662875757  MEMB      107             0.0000000000
     12371       107  OSM       H4G            -3.3012848181      -14.4228348564      -14.0071643349  MEMB      107             0.0000000000
     12372       107  OSM       C5F            -2.0511050684      -13.7659344280      -12.3054737238  MEMB      107             0.0000000000
     12373       107  OSM       H5F            -2.5702203196      -12.8268746150      -12.4045282707  MEMB      107             0.0000000000
     12374       107  OSM       H5G            -1.1796276229      -13.4368346473      -12.8663132856  MEMB      107             0.0000000000
     12375       107  OSM       C6F            -1.6272392450      -14.0915843198      -10.8532053201  MEMB      107             0.0000000000
     12376       107  OSM       H6F            -0.5843347824      -14.3492051788      -10.8266141389  MEMB      107             0.0000000000
     12377       107  OSM       H6G            -2.1626587309      -15.0052322841      -10.5054998790  MEMB      107             0.0000000000
     12378       107  OSM       C7F            -1.6791480083      -13.0101475651       -9.7510743537  MEMB      107             0.0000000000
     12379       107  OSM       H7F            -1.7510480186      -13.4073518180       -8.7293303309  MEMB      107             0.0000000000
     12380       107  OSM       H7G            -2.5958542300      -12.5901455774       -9.7395102774  MEMB      107             0.0000000000
     12381       107  OSM       C8F            -1.4755648411      -11.5471497504      -10.0522249408  MEMB      107             0.0000000000
     12382       107  OSM       H8F            -2.0572011865      -10.7278679398       -9.5598375694  MEMB      107             0.0000000000
     12383       107  OSM       H8G            -1.7046001072      -11.4820864211      -11.1134816121  MEMB      107             0.0000000000
     12384       107  OSM       C9F            -0.0992647391      -11.6692229731       -9.6106316072  MEMB      107             0.0000000000
     12385       107  OSM       H9F             0.5491908492      -11.9201919336      -10.4427537509  MEMB      107             0.0000000000
     12386       107  OSM       C10F            0.3449683032      -11.6792705721       -8.3664494836  MEMB      107             0.0000000000
     12387       107  OSM       H10F            1.3983813127      -11.5033508987       -8.2230877668  MEMB      107             0.0000000000
     12388       107  OSM       C11F           -0.4128848662      -11.5684292418       -7.1023156691  MEMB      107             0.0000000000
     12389       107  OSM       H11F            0.0045674142      -12.1594786177       -6.2885326024  MEMB      107             0.0000000000
     12390       107  OSM       H11G           -1.5183435123      -11.7607861498       -7.1498903157  MEMB      107             0.0000000000
     12391       107  OSM       C12F           -0.1394737929      -10.1734431480       -6.7307465939  MEMB      107             0.0000000000
     12392       107  OSM       H12F           -0.9653576326      -10.2540397147       -6.0175256535  MEMB      107             0.0000000000
     12393       107  OSM       H12G           -0.3516603236       -9.5195723192       -7.6095783599  MEMB      107             0.0000000000
     12394       107  OSM       C13F            0.9682979707       -9.6881102107       -5.7989602893  MEMB      107             0.0000000000
     12395       107  OSM       H13F            1.0171570138       -8.5905817476       -5.5311675145  MEMB      107             0.0000000000
     12396       107  OSM       H13G            1.8984794487       -9.8950230990       -6.3478498457  MEMB      107             0.0000000000
     12397       107  OSM       C14F            0.8625623659      -10.3099584105       -4.4455306869  MEMB      107             0.0000000000
     12398       107  OSM       H14F            0.2955774831      -11.2469034973       -4.4124590220  MEMB      107             0.0000000000
     12399       107  OSM       H14G            0.4024953776       -9.5830885226       -3.7205954951  MEMB      107             0.0000000000
     12400       107  OSM       C15F            2.2528038595      -10.4993245970       -3.9821531817  MEMB      107             0.0000000000
     12401       107  OSM       H15F            2.1453298631      -10.4247537031       -2.8894720704  MEMB      107             0.0000000000
     12402       107  OSM       H15G            2.8163950582       -9.6902037217       -4.5009109331  MEMB      107             0.0000000000
     12403       107  OSM       C16F            3.1437226009      -11.5657778589       -4.4370184563  MEMB      107             0.0000000000
     12404       107  OSM       H16F            3.9622751169      -11.6376094831       -3.6913593741  MEMB      107             0.0000000000
     12405       107  OSM       H16G            3.5577359355      -11.2775134201       -5.4378032530  MEMB      107             0.0000000000
     12406       107  OSM       C17F            2.3858287169      -12.8088071929       -4.4578272495  MEMB      107             0.0000000000
     12407       107  OSM       H17F            3.0463183826      -13.4856897905       -4.9809148162  MEMB      107             0.0000000000
     12408       107  OSM       H17G            1.5501644387      -12.7031882821       -5.1508843537  MEMB      107             0.0000000000
     12409       107  OSM       C18F            1.9321493300      -13.2243213349       -3.0611470856  MEMB      107             0.0000000000
     12410       107  OSM       H18F            2.7822933828      -13.2089746658       -2.3426021190  MEMB      107             0.0000000000
     12411       107  OSM       H18G            1.4989179647      -14.2356697403       -3.1306262675  MEMB      107             0.0000000000
     12412       107  OSM       H18H            1.1535601067      -12.5442006667       -2.6593160168  MEMB      107             0.0000000000
     12413       108  SLPC      N              -8.4258917086      -13.5343221723      -17.8789343657  MEMB      108             0.0000000000
     12414       108  SLPC      C13            -8.7216615328      -12.4747223000      -18.8796954268  MEMB      108             0.0000000000
     12415       108  SLPC      H13A           -8.5027301183      -11.5237048711      -18.3853441670  MEMB      108             0.0000000000
     12416       108  SLPC      H13B           -8.0390148758      -12.5254259920      -19.7219386983  MEMB      108             0.0000000000
     12417       108  SLPC      H13C           -9.7351711177      -12.5054839878      -19.2172064738  MEMB      108             0.0000000000
     12418       108  SLPC      C14            -8.4836661929      -14.8095544345      -18.5231405789  MEMB      108             0.0000000000
     12419       108  SLPC      H14A           -7.6161125927      -14.9041760209      -19.2011098442  MEMB      108             0.0000000000
     12420       108  SLPC      H14B           -8.2082146031      -15.6588218519      -17.8624527945  MEMB      108             0.0000000000
     12421       108  SLPC      H14C           -9.3111727110      -15.1553069891      -19.1174975188  MEMB      108             0.0000000000
     12422       108  SLPC      C15            -9.3563168904      -13.5707765096      -16.7258041539  MEMB      108             0.0000000000
     12423       108  SLPC      H15A           -9.5520709336      -12.5596087772      -16.3956504250  MEMB      108             0.0000000000
     12424       108  SLPC      H15B          -10.2680641542      -14.0911932968      -16.9793983401  MEMB      108             0.0000000000
     12425       108  SLPC      H15C           -8.8745338345      -14.1283184671      -15.9298252035  MEMB      108             0.0000000000
     12426       108  SLPC      C12            -6.9907030736      -13.3485063900      -17.4079425217  MEMB      108             0.0000000000
     12427       108  SLPC      H12A           -6.3495052695      -13.3312604382      -18.2880635478  MEMB      108             0.0000000000
     12428       108  SLPC      H12B           -6.6717081114      -14.2385524704      -16.8714172884  MEMB      108             0.0000000000
     12429       108  SLPC      C11            -6.6941871315      -12.1084696192      -16.5258496548  MEMB      108             0.0000000000
     12430       108  SLPC      H11A           -5.5941039693      -12.1121990383      -16.3509441928  MEMB      108             0.0000000000
     12431       108  SLPC      H11B           -7.1668073447      -12.2476331378      -15.5244647563  MEMB      108             0.0000000000
     12432       108  SLPC      P              -7.5879365417       -9.6451111079      -16.2395605598  MEMB      108             0.0000000000
     12433       108  SLPC      O13            -7.2381056180       -8.3535511745      -16.8767560353  MEMB      108             0.0000000000
     12434       108  SLPC      O14            -8.9699872404       -9.9060735183      -15.7747675217  MEMB      108             0.0000000000
     12435       108  SLPC      O12            -7.1003063901      -10.8707470915      -17.1363854414  MEMB      108             0.0000000000
     12436       108  SLPC      O11            -6.6413147815       -9.8854351541      -15.0339861392  MEMB      108             0.0000000000
     12437       108  SLPC      C1             -5.2575009912       -9.5633379560      -15.0453643584  MEMB      108             0.0000000000
     12438       108  SLPC      HA             -4.6816951618      -10.3553642218      -15.5505890617  MEMB      108             0.0000000000
     12439       108  SLPC      HB             -5.0500439556       -8.5626859205      -15.4935710897  MEMB      108             0.0000000000
     12440       108  SLPC      C2             -4.7944988296       -9.4745850504      -13.6027799736  MEMB      108             0.0000000000
     12441       108  SLPC      HS             -3.6676757712       -9.3743706168      -13.5638686812  MEMB      108             0.0000000000
     12442       108  SLPC      O21            -5.2700580494      -10.5071692311      -12.7583483383  MEMB      108             0.0000000000
     12443       108  SLPC      C21            -4.7376889691      -11.4962340266      -13.0857989980  MEMB      108             0.0000000000
     12444       108  SLPC      O22            -3.6973942507      -11.6254335020      -13.7479421748  MEMB      108             0.0000000000
     12445       108  SLPC      C22            -5.7646547616      -12.5513576409      -12.5904299926  MEMB      108             0.0000000000
     12446       108  SLPC      H2R            -6.4616456603      -12.2471961405      -11.8076409379  MEMB      108             0.0000000000
     12447       108  SLPC      H2S            -6.1928251342      -13.0687976741      -13.4752502517  MEMB      108             0.0000000000
     12448       108  SLPC      C3             -5.3427272917       -8.2990048556      -13.0056647169  MEMB      108             0.0000000000
     12449       108  SLPC      HX             -4.7145318226       -7.4265779763      -13.2178077429  MEMB      108             0.0000000000
     12450       108  SLPC      HY             -5.1980818831       -8.7016338163      -11.9316872985  MEMB      108             0.0000000000
     12451       108  SLPC      O31            -6.7249524570       -8.1000222219      -13.4050931776  MEMB      108             0.0000000000
     12452       108  SLPC      C31            -7.2630583284       -6.7428348623      -13.6011821022  MEMB      108             0.0000000000
     12453       108  SLPC      O32            -6.3391944325       -5.9777337012      -13.8360931950  MEMB      108             0.0000000000
     12454       108  SLPC      C32            -8.8377041292       -6.2581711959      -12.5085710052  MEMB      108             0.0000000000
     12455       108  SLPC      H2X            -9.2158285518       -7.0331824762      -13.1904979406  MEMB      108             0.0000000000
     12456       108  SLPC      H2Y            -9.5590454698       -5.7486796466      -12.7737625254  MEMB      108             0.0000000000
     12457       108  SLPC      C23            -5.1624974287      -13.6267357051      -11.8139517490  MEMB      108             0.0000000000
     12458       108  SLPC      H3R            -4.5770298669      -13.6438547953      -12.7298556516  MEMB      108             0.0000000000
     12459       108  SLPC      H3S            -5.6223940765      -14.5908258537      -11.6048184065  MEMB      108             0.0000000000
     12460       108  SLPC      C24            -4.3863310559      -13.3156674213      -10.6230298591  MEMB      108             0.0000000000
     12461       108  SLPC      H4R            -3.7601243000      -12.5012818225      -11.0508485974  MEMB      108             0.0000000000
     12462       108  SLPC      H4S            -3.8749267236      -14.2318834036      -10.2330104015  MEMB      108             0.0000000000
     12463       108  SLPC      C25            -4.9641006146      -12.7525945454       -9.3617445498  MEMB      108             0.0000000000
     12464       108  SLPC      H5R            -5.6224105200      -13.5921340125       -9.0819950458  MEMB      108             0.0000000000
     12465       108  SLPC      H5S            -5.4157323738      -11.8433650004       -9.7984585017  MEMB      108             0.0000000000
     12466       108  SLPC      C26            -4.0444071002      -12.3891337914       -8.1521058361  MEMB      108             0.0000000000
     12467       108  SLPC      H6R            -3.2975943081      -11.5846347608       -8.3625859799  MEMB      108             0.0000000000
     12468       108  SLPC      H6S            -3.4679663358      -13.2465768358       -7.7502038742  MEMB      108             0.0000000000
     12469       108  SLPC      C27            -4.7047165470      -11.6952836593       -7.0414735927  MEMB      108             0.0000000000
     12470       108  SLPC      H7R            -3.8943488449      -11.2469972522       -6.4072640042  MEMB      108             0.0000000000
     12471       108  SLPC      H7S            -5.3163575385      -12.4479038379       -6.5377859246  MEMB      108             0.0000000000
     12472       108  SLPC      C28            -5.6797775307      -10.7123686840       -7.5249821297  MEMB      108             0.0000000000
     12473       108  SLPC      H8R            -6.1483412902      -10.2886464650       -6.6178455966  MEMB      108             0.0000000000
     12474       108  SLPC      H8S            -6.4832040725      -11.0562456854       -8.1694518558  MEMB      108             0.0000000000
     12475       108  SLPC      C29            -5.0361372249       -9.7582122702       -8.3701041531  MEMB      108             0.0000000000
     12476       108  SLPC      H9R            -4.3541462129       -9.8883380979       -9.2401885182  MEMB      108             0.0000000000
     12477       108  SLPC      C210           -5.4571051223       -8.6171013533       -8.0982660240  MEMB      108             0.0000000000
     12478       108  SLPC      H10R           -5.3814230691       -8.1465728382       -8.9259460478  MEMB      108             0.0000000000
     12479       108  SLPC      C211           -6.3277199952       -7.8187195352       -7.2729777629  MEMB      108             0.0000000000
     12480       108  SLPC      H11R           -6.8689861063       -8.3608291130       -6.5252619318  MEMB      108             0.0000000000
     12481       108  SLPC      H11S           -6.8316683578       -6.9970365641       -7.8203526670  MEMB      108             0.0000000000
     12482       108  SLPC      C212           -5.2045637373       -7.1829227496       -6.7581302173  MEMB      108             0.0000000000
     12483       108  SLPC      H12R           -5.1661991067       -6.1372080691       -6.9257749598  MEMB      108             0.0000000000
     12484       108  SLPC      C213           -4.4513808707       -7.4715846669       -5.8088911596  MEMB      108             0.0000000000
     12485       108  SLPC      H13R           -3.8961573847       -6.5371675735       -5.6327862213  MEMB      108             0.0000000000
     12486       108  SLPC      C214           -4.5528848799       -8.6939285848       -4.9008798472  MEMB      108             0.0000000000
     12487       108  SLPC      H14R           -4.0909825543       -9.1793754188       -5.7637980643  MEMB      108             0.0000000000
     12488       108  SLPC      H14S           -5.3675165394       -9.3298751163       -5.1770915474  MEMB      108             0.0000000000
     12489       108  SLPC      C215           -4.0334971534       -9.0530413788       -3.3006387254  MEMB      108             0.0000000000
     12490       108  SLPC      H15R           -3.9265525994      -10.1232642866       -3.2769944689  MEMB      108             0.0000000000
     12491       108  SLPC      H15S           -4.9587338536       -8.8368796878       -2.7382629262  MEMB      108             0.0000000000
     12492       108  SLPC      C216           -2.8799034879       -8.4418319314       -2.2311462654  MEMB      108             0.0000000000
     12493       108  SLPC      H16R           -2.9579987806       -7.3937955915       -2.0248231120  MEMB      108             0.0000000000
     12494       108  SLPC      H16S           -1.7544447504       -8.3895972901       -2.3546779941  MEMB      108             0.0000000000
     12495       108  SLPC      C217           -2.5516365396       -8.7818967021       -0.9139648840  MEMB      108             0.0000000000
     12496       108  SLPC      H17R           -3.5731185273       -9.0327423094       -0.6576906781  MEMB      108             0.0000000000
     12497       108  SLPC      H17S           -2.1369309416       -7.7827859403       -0.5004727393  MEMB      108             0.0000000000
     12498       108  SLPC      C218           -1.4692699679       -9.8523551590       -1.0159836590  MEMB      108             0.0000000000
     12499       108  SLPC      H18R           -0.4580470552       -9.4159997566       -1.2907642484  MEMB      108             0.0000000000
     12500       108  SLPC      H18S           -1.7343282336      -10.6339161346       -1.7487368017  MEMB      108             0.0000000000
     12501       108  SLPC      H18T           -1.5010882990      -10.1836618549        0.0216254766  MEMB      108             0.0000000000
     12502       108  SLPC      C33            -9.0345964001       -6.5084905971      -10.2348972424  MEMB      108             0.0000000000
     12503       108  SLPC      H3X            -9.8417514638       -6.0734074817      -10.7122264479  MEMB      108             0.0000000000
     12504       108  SLPC      H3Y            -8.5886846391       -6.0847128891       -9.3845630475  MEMB      108             0.0000000000
     12505       108  SLPC      C34            -8.3480520662       -8.3323744993       -9.2645255044  MEMB      108             0.0000000000
     12506       108  SLPC      H4X            -8.3586419852       -8.1666166163       -8.2602951920  MEMB      108             0.0000000000
     12507       108  SLPC      H4Y            -7.3482651040       -8.6702088812       -9.6334391533  MEMB      108             0.0000000000
     12508       108  SLPC      C35            -8.8782520197      -10.0636184063       -9.6855359360  MEMB      108             0.0000000000
     12509       108  SLPC      H5X            -8.8064225524      -10.4656380698      -10.8000449684  MEMB      108             0.0000000000
     12510       108  SLPC      H5Y           -10.0686235723      -10.0579836748       -9.7025232921  MEMB      108             0.0000000000
     12511       108  SLPC      C36            -9.1094664776      -11.1636248341       -9.0300191627  MEMB      108             0.0000000000
     12512       108  SLPC      H6X            -8.0236728106      -11.2537408592       -9.1905965582  MEMB      108             0.0000000000
     12513       108  SLPC      H6Y            -9.7513730809      -11.8227730577       -9.7388778818  MEMB      108             0.0000000000
     12514       108  SLPC      C37            -9.6597548978      -10.5266240277       -7.7964129041  MEMB      108             0.0000000000
     12515       108  SLPC      H7X           -10.6858901483      -10.0792060386       -7.8145853239  MEMB      108             0.0000000000
     12516       108  SLPC      H7Y            -9.0097688494       -9.7120380224       -7.4183101178  MEMB      108             0.0000000000
     12517       108  SLPC      C38            -9.5527858133      -11.7149178167       -6.9983474343  MEMB      108             0.0000000000
     12518       108  SLPC      H8X            -9.1132842223      -11.3331243031       -6.0659377131  MEMB      108             0.0000000000
     12519       108  SLPC      H8Y            -8.8563676663      -12.4454301920       -7.4714904310  MEMB      108             0.0000000000
     12520       108  SLPC      C39           -10.9152780039      -12.3152116694       -6.8611482240  MEMB      108             0.0000000000
     12521       108  SLPC      H9X           -11.5246198319      -12.4372276080       -7.7822368952  MEMB      108             0.0000000000
     12522       108  SLPC      H9Y           -11.3940026817      -11.5288071851       -6.3100275639  MEMB      108             0.0000000000
     12523       108  SLPC      C310          -11.0034725505      -13.3726287634       -5.7982470109  MEMB      108             0.0000000000
     12524       108  SLPC      H10X          -11.1128698459      -14.3595770990       -6.1596887251  MEMB      108             0.0000000000
     12525       108  SLPC      H10Y          -11.9564468130      -13.2406995048       -5.2513514931  MEMB      108             0.0000000000
     12526       108  SLPC      C311           -9.8379713691      -13.2981777841       -4.8414675065  MEMB      108             0.0000000000
     12527       108  SLPC      H11X           -9.8862398638      -12.2514217050       -4.5132255670  MEMB      108             0.0000000000
     12528       108  SLPC      H11Y           -8.8198355538      -13.4969540543       -5.2372488803  MEMB      108             0.0000000000
     12529       108  SLPC      C312          -10.0573535103      -14.0443541025       -3.5725534922  MEMB      108             0.0000000000
     12530       108  SLPC      H12X          -10.2914629482      -15.1063272063       -3.7913142036  MEMB      108             0.0000000000
     12531       108  SLPC      H12Y          -10.9737468264      -13.5620347965       -3.1364514787  MEMB      108             0.0000000000
     12532       108  SLPC      C313           -8.8406689815      -13.9069039396       -2.6453904770  MEMB      108             0.0000000000
     12533       108  SLPC      H13X           -7.8714135834      -14.1961404841       -3.0585409684  MEMB      108             0.0000000000
     12534       108  SLPC      H13Y           -8.9187436956      -14.4246780089       -1.7090611312  MEMB      108             0.0000000000
     12535       108  SLPC      C314           -8.7521689431      -12.5501929819       -2.0726830405  MEMB      108             0.0000000000
     12536       108  SLPC      H14X           -9.6746932342      -12.4955170395       -1.4223509735  MEMB      108             0.0000000000
     12537       108  SLPC      H14Y           -8.7260581215      -11.9199943222       -2.9799793737  MEMB      108             0.0000000000
     12538       108  SLPC      C315           -7.5692096704      -12.1242199132       -1.2469614261  MEMB      108             0.0000000000
     12539       108  SLPC      H15X           -7.7972110556      -11.1420330373       -0.7474028395  MEMB      108             0.0000000000
     12540       108  SLPC      H15Y           -6.7191799100      -11.9077382540       -1.9286401537  MEMB      108             0.0000000000
     12541       108  SLPC      C316           -7.2524438763      -13.2910183038       -0.3238395926  MEMB      108             0.0000000000
     12542       108  SLPC      H16X           -7.1453321659      -14.2460330980       -0.8421479899  MEMB      108             0.0000000000
     12543       108  SLPC      H16Y           -7.9777827105      -13.3290256936        0.5334677151  MEMB      108             0.0000000000
     12544       108  SLPC      C317           -5.8433976197      -13.3025059729        0.1366380253  MEMB      108             0.0000000000
     12545       108  SLPC      H17X           -6.2215076412      -12.3978725048        0.5538113359  MEMB      108             0.0000000000
     12546       108  SLPC      H17Y           -5.0732077593      -12.7303369024       -0.4153677358  MEMB      108             0.0000000000
     12547       108  SLPC      C318           -5.4137876940      -14.3843600208        1.2117348410  MEMB      108             0.0000000000
     12548       108  SLPC      H18X           -4.4944986345      -14.9102310051        0.9306822699  MEMB      108             0.0000000000
     12549       108  SLPC      H18Y           -6.2024757940      -14.6983078161        1.9281477596  MEMB      108             0.0000000000
     12550       108  SLPC      H18Z           -4.8449451681      -14.0826227079        2.1179542799  MEMB      108             0.0000000000
     12551       109  SAPC      N              12.1902142672      -10.6868994545      -21.0504837986  MEMB      109             0.0000000000
     12552       109  SAPC      C12            12.8811303868       -9.4282657161      -21.5663738245  MEMB      109             0.0000000000
     12553       109  SAPC      H12A           12.8223175753       -9.4220044240      -22.6423642764  MEMB      109             0.0000000000
     12554       109  SAPC      H12B           13.9406280197       -9.4855143190      -21.3084335856  MEMB      109             0.0000000000
     12555       109  SAPC      C13            12.4275958415      -10.7505396850      -19.5796314501  MEMB      109             0.0000000000
     12556       109  SAPC      H13A           12.0229665837       -9.8255713758      -19.1401287148  MEMB      109             0.0000000000
     12557       109  SAPC      H13B           11.9753884918      -11.5785289360      -19.0734415462  MEMB      109             0.0000000000
     12558       109  SAPC      H13C           13.4898828903      -10.6883373747      -19.3362838508  MEMB      109             0.0000000000
     12559       109  SAPC      C14            10.7303753169      -10.6079486651      -21.3063112287  MEMB      109             0.0000000000
     12560       109  SAPC      H14A           10.2662157197      -11.3497268339      -20.6774920501  MEMB      109             0.0000000000
     12561       109  SAPC      H14B           10.3444501569       -9.6248701714      -21.0403710478  MEMB      109             0.0000000000
     12562       109  SAPC      H14C           10.5171105608      -10.8098846275      -22.3526092029  MEMB      109             0.0000000000
     12563       109  SAPC      C15            12.6907068845      -11.8833436833      -21.7749326695  MEMB      109             0.0000000000
     12564       109  SAPC      H15A           12.4025490949      -12.8074428114      -21.2840760491  MEMB      109             0.0000000000
     12565       109  SAPC      H15B           12.2987848322      -11.8508941948      -22.7843991254  MEMB      109             0.0000000000
     12566       109  SAPC      H15C           13.7721642307      -11.8585079962      -21.8739820577  MEMB      109             0.0000000000
     12567       109  SAPC      C11            12.3947521484       -8.0300872766      -21.0671996652  MEMB      109             0.0000000000
     12568       109  SAPC      H11A           11.4161580023       -7.7966986600      -21.5331919307  MEMB      109             0.0000000000
     12569       109  SAPC      H11B           13.1354983462       -7.2770851792      -21.4469651748  MEMB      109             0.0000000000
     12570       109  SAPC      P              13.2510376095       -7.4262952733      -18.6283530187  MEMB      109             0.0000000000
     12571       109  SAPC      O13            13.5304522519       -5.9916501605      -18.8102022602  MEMB      109             0.0000000000
     12572       109  SAPC      O14            12.9401743082       -7.9324369898      -17.2841496232  MEMB      109             0.0000000000
     12573       109  SAPC      O12            12.1865273711       -7.9338917478      -19.6601358026  MEMB      109             0.0000000000
     12574       109  SAPC      O11            14.4268930276       -8.3031520303      -19.1308816795  MEMB      109             0.0000000000
     12575       109  SAPC      C1             15.4965653823       -7.6922363229      -19.7596964834  MEMB      109             0.0000000000
     12576       109  SAPC      HA             15.8725766803       -8.3819391406      -20.5724399607  MEMB      109             0.0000000000
     12577       109  SAPC      HB             15.3683399973       -6.6768592122      -20.2293001467  MEMB      109             0.0000000000
     12578       109  SAPC      C2             16.6161766218       -7.5136870091      -18.7903605422  MEMB      109             0.0000000000
     12579       109  SAPC      HS             17.2611639697       -7.6201041550      -19.6355787940  MEMB      109             0.0000000000
     12580       109  SAPC      O21            16.8409349472       -8.5020745877      -17.7824806491  MEMB      109             0.0000000000
     12581       109  SAPC      C21            16.9008164486       -9.7699230904      -18.1716502288  MEMB      109             0.0000000000
     12582       109  SAPC      O22            17.1973708056      -10.2341511781      -19.2417702719  MEMB      109             0.0000000000
     12583       109  SAPC      C22            16.6515160314      -10.5488806879      -16.9527287262  MEMB      109             0.0000000000
     12584       109  SAPC      H2R            17.0359470508      -11.5846217211      -17.0830542203  MEMB      109             0.0000000000
     12585       109  SAPC      H2S            17.1439566411      -10.0097005446      -16.1346420810  MEMB      109             0.0000000000
     12586       109  SAPC      C3             16.6547744723       -6.1264024647      -17.9953259348  MEMB      109             0.0000000000
     12587       109  SAPC      HX             16.4673951049       -5.3649609510      -18.7196674926  MEMB      109             0.0000000000
     12588       109  SAPC      HY             17.5759747875       -5.5814830085      -17.7230405712  MEMB      109             0.0000000000
     12589       109  SAPC      O31            16.0204791879       -6.1642942154      -16.7599837172  MEMB      109             0.0000000000
     12590       109  SAPC      C31            15.8865007412       -5.0551409969      -16.1138079896  MEMB      109             0.0000000000
     12591       109  SAPC      O32            16.3777997634       -3.9771251258      -16.2992656235  MEMB      109             0.0000000000
     12592       109  SAPC      C32            15.1250672532       -5.4606039886      -14.9326029174  MEMB      109             0.0000000000
     12593       109  SAPC      H2X            15.7687600387       -6.1064522719      -14.3209555510  MEMB      109             0.0000000000
     12594       109  SAPC      H2Y            14.2338121020       -5.9553170801      -15.3834378374  MEMB      109             0.0000000000
     12595       109  SAPC      C23            15.3074886994      -10.3440543433      -16.3738032164  MEMB      109             0.0000000000
     12596       109  SAPC      H3R            14.6233155104      -10.0859048463      -17.2038609772  MEMB      109             0.0000000000
     12597       109  SAPC      H3S            15.3647301211       -9.4772490465      -15.6669866354  MEMB      109             0.0000000000
     12598       109  SAPC      C24            14.8772777394      -11.6267517725      -15.7083877546  MEMB      109             0.0000000000
     12599       109  SAPC      H4R            14.9753741967      -12.4317506838      -16.4665611269  MEMB      109             0.0000000000
     12600       109  SAPC      H4S            13.8181402924      -11.4607756171      -15.4727032681  MEMB      109             0.0000000000
     12601       109  SAPC      C25            15.5196865545      -12.0809803993      -14.4478525678  MEMB      109             0.0000000000
     12602       109  SAPC      H5R            15.9774145521      -13.0902077070      -14.4840049093  MEMB      109             0.0000000000
     12603       109  SAPC      C26            15.7728136867      -11.3710605079      -13.3508869480  MEMB      109             0.0000000000
     12604       109  SAPC      H6R            16.2726172190      -11.9950663266      -12.6062028142  MEMB      109             0.0000000000
     12605       109  SAPC      C27            15.5896978912       -9.9432014766      -12.8646618497  MEMB      109             0.0000000000
     12606       109  SAPC      H7R            16.1905076831       -9.1777951127      -13.4331328582  MEMB      109             0.0000000000
     12607       109  SAPC      H7S            16.0425886656       -9.9021517443      -11.8536808070  MEMB      109             0.0000000000
     12608       109  SAPC      C28            14.1712397265       -9.5174838696      -12.7344270920  MEMB      109             0.0000000000
     12609       109  SAPC      H8R            13.8684239088       -8.8312492514      -13.5322095366  MEMB      109             0.0000000000
     12610       109  SAPC      C29            13.2933050014       -9.8664087663      -11.7730779502  MEMB      109             0.0000000000
     12611       109  SAPC      H9R            12.2604813339       -9.5288257468      -11.9006511807  MEMB      109             0.0000000000
     12612       109  SAPC      C210           13.5307721837      -10.7759235021      -10.5900606423  MEMB      109             0.0000000000
     12613       109  SAPC      H10R           14.6181228683      -10.8272653704      -10.3895409611  MEMB      109             0.0000000000
     12614       109  SAPC      H10S           13.2003594318      -11.7841397990      -10.9306966643  MEMB      109             0.0000000000
     12615       109  SAPC      C211           12.7986345893      -10.4623627752       -9.2973949264  MEMB      109             0.0000000000
     12616       109  SAPC      H11R           11.7607161892      -10.1201192423       -9.4295125504  MEMB      109             0.0000000000
     12617       109  SAPC      C212           13.2974679033      -10.4865882444       -8.0374147471  MEMB      109             0.0000000000
     12618       109  SAPC      H12R           12.5979457650      -10.2874049532       -7.2034567709  MEMB      109             0.0000000000
     12619       109  SAPC      C213           14.7184816624      -10.8333048385       -7.6266571278  MEMB      109             0.0000000000
     12620       109  SAPC      H13R           15.2469838204       -9.9027597839       -7.3112171509  MEMB      109             0.0000000000
     12621       109  SAPC      H13S           15.3110435718      -11.1944300127       -8.4907023429  MEMB      109             0.0000000000
     12622       109  SAPC      C214           14.8242212237      -11.8886613592       -6.5503789072  MEMB      109             0.0000000000
     12623       109  SAPC      H14R           14.7189309754      -12.9261451678       -6.8797097927  MEMB      109             0.0000000000
     12624       109  SAPC      C215           15.2032379615      -11.7113421315       -5.2812724331  MEMB      109             0.0000000000
     12625       109  SAPC      H15R           15.3240692492      -12.5950174599       -4.6414211098  MEMB      109             0.0000000000
     12626       109  SAPC      C216           15.5970072494      -10.3884185197       -4.7133558650  MEMB      109             0.0000000000
     12627       109  SAPC      H16R           15.5729651927      -10.3349724734       -3.6030914582  MEMB      109             0.0000000000
     12628       109  SAPC      H16S           14.9648609337       -9.5587471806       -5.0976700234  MEMB      109             0.0000000000
     12629       109  SAPC      C217           16.9992654909      -10.1432063078       -5.2060314486  MEMB      109             0.0000000000
     12630       109  SAPC      H17R           17.0102581508       -9.0295079594       -5.1835092988  MEMB      109             0.0000000000
     12631       109  SAPC      H17S           17.2333517304      -10.4060018869       -6.2610900496  MEMB      109             0.0000000000
     12632       109  SAPC      C218           18.0519605663      -10.8921713941       -4.3811505719  MEMB      109             0.0000000000
     12633       109  SAPC      H18R           19.0776569100      -10.6583245672       -4.7845803752  MEMB      109             0.0000000000
     12634       109  SAPC      H18S           17.9271389346      -11.9763323331       -4.4800665859  MEMB      109             0.0000000000
     12635       109  SAPC      C219           18.0395475514      -10.6085635669       -2.9160663836  MEMB      109             0.0000000000
     12636       109  SAPC      H19R           17.2434538046      -10.9672800042       -2.2526406324  MEMB      109             0.0000000000
     12637       109  SAPC      H19S           17.6789059020       -9.5325376757       -2.8200140223  MEMB      109             0.0000000000
     12638       109  SAPC      C220           19.4366747211      -11.1091052479       -2.4013750704  MEMB      109             0.0000000000
     12639       109  SAPC      H20R           20.2734229444      -10.4115019239       -2.3041684832  MEMB      109             0.0000000000
     12640       109  SAPC      H20S           19.9662388237      -11.9997211207       -2.5218317763  MEMB      109             0.0000000000
     12641       109  SAPC      H20T           19.2146284485      -11.4551659099       -1.4002113515  MEMB      109             0.0000000000
     12642       109  SAPC      C33            14.7094278020       -4.3006309221      -14.0924454530  MEMB      109             0.0000000000
     12643       109  SAPC      H3X            14.8124619383       -3.4658498628      -14.7845735248  MEMB      109             0.0000000000
     12644       109  SAPC      H3Y            15.3880629516       -3.9599692122      -13.3110150507  MEMB      109             0.0000000000
     12645       109  SAPC      C34            13.3328977139       -4.5790491750      -13.4954868226  MEMB      109             0.0000000000
     12646       109  SAPC      H4X            12.6319763150       -4.8967139270      -14.3033048138  MEMB      109             0.0000000000
     12647       109  SAPC      H4Y            12.9337693175       -3.6341377764      -13.0616686393  MEMB      109             0.0000000000
     12648       109  SAPC      C35            13.4262395086       -5.5846185064      -12.3564221840  MEMB      109             0.0000000000
     12649       109  SAPC      H5X            13.9702153857       -6.5049608285      -12.6459255720  MEMB      109             0.0000000000
     12650       109  SAPC      H5Y            12.4054874880       -5.8370977854      -11.9992646309  MEMB      109             0.0000000000
     12651       109  SAPC      C36            14.1658361860       -5.0349860903      -11.1637264835  MEMB      109             0.0000000000
     12652       109  SAPC      H6X            13.6900086072       -4.1093557396      -10.8727110109  MEMB      109             0.0000000000
     12653       109  SAPC      H6Y            15.2085223671       -4.7402274557      -11.3977939963  MEMB      109             0.0000000000
     12654       109  SAPC      C37            13.9965447850       -5.8879406110       -9.9216201894  MEMB      109             0.0000000000
     12655       109  SAPC      H7X            14.7178796565       -6.7204667602      -10.0280312919  MEMB      109             0.0000000000
     12656       109  SAPC      H7Y            13.0763192676       -6.4511566847       -9.8973352178  MEMB      109             0.0000000000
     12657       109  SAPC      C38            14.0032734932       -5.0351933745       -8.5981172776  MEMB      109             0.0000000000
     12658       109  SAPC      H8X            13.4741280570       -4.1293473207       -8.5747485719  MEMB      109             0.0000000000
     12659       109  SAPC      H8Y            14.8196020381       -4.3593650735       -8.9504755989  MEMB      109             0.0000000000
     12660       109  SAPC      C39            14.1131024583       -5.9885575459       -7.2218645007  MEMB      109             0.0000000000
     12661       109  SAPC      H9X            14.6853729523       -6.9194788112       -7.4146815347  MEMB      109             0.0000000000
     12662       109  SAPC      H9Y            13.0897539407       -6.1648590440       -7.0194714039  MEMB      109             0.0000000000
     12663       109  SAPC      C310           14.6942815577       -5.7747679650       -5.7209110343  MEMB      109             0.0000000000
     12664       109  SAPC      H10X           15.7538914699       -5.6855296029       -5.5661735034  MEMB      109             0.0000000000
     12665       109  SAPC      H10Y           15.0008458321       -6.5066988315       -4.9955600001  MEMB      109             0.0000000000
     12666       109  SAPC      C311           14.6054099356       -4.4361979100       -5.2746198298  MEMB      109             0.0000000000
     12667       109  SAPC      H11X           14.6151528185       -4.2634668745       -6.3214510468  MEMB      109             0.0000000000
     12668       109  SAPC      H11Y           15.4696671939       -3.8956719320       -4.9606019654  MEMB      109             0.0000000000
     12669       109  SAPC      C312           13.4813227712       -3.9087089287       -4.5726569079  MEMB      109             0.0000000000
     12670       109  SAPC      H12X           12.6176229854       -4.2578568191       -5.1737402226  MEMB      109             0.0000000000
     12671       109  SAPC      H12Y           13.4339093231       -2.7894927420       -4.4595771121  MEMB      109             0.0000000000
     12672       109  SAPC      C313           13.8530661721       -4.4655521066       -3.2947818747  MEMB      109             0.0000000000
     12673       109  SAPC      H13X           14.6317593715       -3.7906136665       -2.8708336346  MEMB      109             0.0000000000
     12674       109  SAPC      H13Y           14.3023830720       -5.4776976879       -3.3974505834  MEMB      109             0.0000000000
     12675       109  SAPC      C314           12.5206314015       -4.5729070595       -2.7050645796  MEMB      109             0.0000000000
     12676       109  SAPC      H14X           11.9935725940       -5.3625680652       -3.2787156535  MEMB      109             0.0000000000
     12677       109  SAPC      H14Y           12.0128664333       -3.5893161218       -2.8500623710  MEMB      109             0.0000000000
     12678       109  SAPC      C315           12.5891971575       -4.9424545429       -1.2842258123  MEMB      109             0.0000000000
     12679       109  SAPC      H15X           11.5940681629       -4.8268663884       -0.8249772915  MEMB      109             0.0000000000
     12680       109  SAPC      H15Y           13.2748605887       -4.1676653742       -0.8671341461  MEMB      109             0.0000000000
     12681       109  SAPC      C316           13.1187364690       -6.3494051375       -1.0168297763  MEMB      109             0.0000000000
     12682       109  SAPC      H16X           13.3825605432       -6.4464681397        0.0589813247  MEMB      109             0.0000000000
     12683       109  SAPC      H16Y           14.0369254647       -6.4604216973       -1.6269456206  MEMB      109             0.0000000000
     12684       109  SAPC      C317           12.1513926804       -7.4919310942       -1.3386894951  MEMB      109             0.0000000000
     12685       109  SAPC      H17X           11.7185742324       -7.3402910277       -2.3537441987  MEMB      109             0.0000000000
     12686       109  SAPC      H17Y           11.3120006948       -7.5066147411       -0.6023529984  MEMB      109             0.0000000000
     12687       109  SAPC      C318           12.8768293724       -8.8338411518       -1.3728082181  MEMB      109             0.0000000000
     12688       109  SAPC      H18X           13.4813521022       -9.0189451607       -0.4594747759  MEMB      109             0.0000000000
     12689       109  SAPC      H18Y           13.5886047117       -8.8210494378       -2.2251122269  MEMB      109             0.0000000000
     12690       109  SAPC      H18Z           12.1429378336       -9.6549183902       -1.5235727464  MEMB      109             0.0000000000
     12691       110  CHL1      C3              5.1863673724       14.7348997109      -17.2735412200  MEMB      110             0.0000000000
     12692       110  CHL1      H3              4.9996361132       15.7728019777      -16.9196986812  MEMB      110             0.0000000000
     12693       110  CHL1      O3              5.1392421274       14.6927218815      -18.6851378836  MEMB      110             0.0000000000
     12694       110  CHL1      H3'             4.2907492776       15.0691599144      -18.9326891517  MEMB      110             0.0000000000
     12695       110  CHL1      C4              6.5781560788       14.3424886872      -16.8395607302  MEMB      110             0.0000000000
     12696       110  CHL1      H4A             6.7423458990       13.3230527988      -17.2740301479  MEMB      110             0.0000000000
     12697       110  CHL1      H4B             7.2534873524       15.0816448935      -17.3334377183  MEMB      110             0.0000000000
     12698       110  CHL1      C5              6.7894307897       14.3309858939      -15.3509247014  MEMB      110             0.0000000000
     12699       110  CHL1      C6              7.7536733848       15.0606639712      -14.7564848503  MEMB      110             0.0000000000
     12700       110  CHL1      H6              8.4453956848       15.6892029732      -15.3426135544  MEMB      110             0.0000000000
     12701       110  CHL1      C7              7.9632979332       15.0561211335      -13.2745171727  MEMB      110             0.0000000000
     12702       110  CHL1      H7A             9.0364749235       14.9507150495      -13.0199293387  MEMB      110             0.0000000000
     12703       110  CHL1      H7B             7.6165705257       16.0273749867      -12.8603458965  MEMB      110             0.0000000000
     12704       110  CHL1      C8              7.1082913932       14.0023910740      -12.5274211768  MEMB      110             0.0000000000
     12705       110  CHL1      H8              7.5577807003       12.9917726106      -12.6598175829  MEMB      110             0.0000000000
     12706       110  CHL1      C14             7.0226254132       14.4652502840      -11.0921059777  MEMB      110             0.0000000000
     12707       110  CHL1      H14             6.6601017173       15.5156746508      -11.1027951858  MEMB      110             0.0000000000
     12708       110  CHL1      C15             8.3384508749       14.5447001070      -10.3870384202  MEMB      110             0.0000000000
     12709       110  CHL1      H15A            8.5254491005       13.4935301259      -10.5609231458  MEMB      110             0.0000000000
     12710       110  CHL1      H15B            9.1173296997       15.1564142027      -10.8618729851  MEMB      110             0.0000000000
     12711       110  CHL1      C16             7.9732576073       14.8708299396       -8.9509420664  MEMB      110             0.0000000000
     12712       110  CHL1      H16A            8.5123641750       14.2524098161       -8.2090640220  MEMB      110             0.0000000000
     12713       110  CHL1      H16B            8.2228207827       15.9388655246       -8.8002117561  MEMB      110             0.0000000000
     12714       110  CHL1      C17             6.4443018663       14.5602857266       -8.8442517964  MEMB      110             0.0000000000
     12715       110  CHL1      H17             5.9307824533       15.5453811707       -8.9605911007  MEMB      110             0.0000000000
     12716       110  CHL1      C13             6.1128238608       13.7431933521      -10.1218089861  MEMB      110             0.0000000000
     12717       110  CHL1      C18             6.4899135249       12.2669656572       -9.9260864498  MEMB      110             0.0000000000
     12718       110  CHL1      H18A            5.8316030718       11.6814103090       -9.2556323456  MEMB      110             0.0000000000
     12719       110  CHL1      H18B            6.6323215278       11.7143407037      -10.8802459839  MEMB      110             0.0000000000
     12720       110  CHL1      H18C            7.4542762962       12.3055279024       -9.4322054996  MEMB      110             0.0000000000
     12721       110  CHL1      C12             4.7211936416       13.8389285429      -10.6745110672  MEMB      110             0.0000000000
     12722       110  CHL1      H12A            4.1763696214       13.1463724412      -10.0264384235  MEMB      110             0.0000000000
     12723       110  CHL1      H12B            4.2966290936       14.8416302829      -10.5127029992  MEMB      110             0.0000000000
     12724       110  CHL1      C11             4.6192518729       13.4966523856      -12.1831028881  MEMB      110             0.0000000000
     12725       110  CHL1      H11A            4.6166792184       12.4318712454      -12.4268902793  MEMB      110             0.0000000000
     12726       110  CHL1      H11B            3.6483140013       13.9202941117      -12.5081597397  MEMB      110             0.0000000000
     12727       110  CHL1      C9              5.7216226624       14.0527269269      -13.1006241604  MEMB      110             0.0000000000
     12728       110  CHL1      H9              5.4618037449       15.1372083034      -13.1068315306  MEMB      110             0.0000000000
     12729       110  CHL1      C10             5.6916165976       13.5788267165      -14.5714306072  MEMB      110             0.0000000000
     12730       110  CHL1      C19             5.9124782939       12.0497691096      -14.7036538464  MEMB      110             0.0000000000
     12731       110  CHL1      H19A            6.9010410306       11.7644300650      -14.3152056479  MEMB      110             0.0000000000
     12732       110  CHL1      H19B            5.1396979153       11.4725186051      -14.1562098291  MEMB      110             0.0000000000
     12733       110  CHL1      H19C            5.8621548574       11.7391980792      -15.7673247408  MEMB      110             0.0000000000
     12734       110  CHL1      C1              4.2889631874       13.8972542173      -15.1389753070  MEMB      110             0.0000000000
     12735       110  CHL1      H1A             3.5582403586       13.2108988651      -14.6671376466  MEMB      110             0.0000000000
     12736       110  CHL1      H1B             4.0357125519       14.9355576938      -14.8314480552  MEMB      110             0.0000000000
     12737       110  CHL1      C2              4.1855781720       13.7628889542      -16.6590110751  MEMB      110             0.0000000000
     12738       110  CHL1      H2A             3.1584253528       13.9891073154      -16.9962790825  MEMB      110             0.0000000000
     12739       110  CHL1      H2B             4.4196602693       12.7131104150      -16.9487718447  MEMB      110             0.0000000000
     12740       110  CHL1      C20             6.0680666932       14.0558437616       -7.4523144730  MEMB      110             0.0000000000
     12741       110  CHL1      H20             6.6864380213       13.1700763290       -7.1866928261  MEMB      110             0.0000000000
     12742       110  CHL1      C21             4.6156129985       13.5957963731       -7.3325051803  MEMB      110             0.0000000000
     12743       110  CHL1      H21A            3.9210817614       14.3756583936       -7.7061085246  MEMB      110             0.0000000000
     12744       110  CHL1      H21B            4.3236091963       13.3558756256       -6.2912763725  MEMB      110             0.0000000000
     12745       110  CHL1      H21C            4.5147634850       12.6377475025       -7.8796822013  MEMB      110             0.0000000000
     12746       110  CHL1      C22             6.3406801767       15.1770066196       -6.4445798652  MEMB      110             0.0000000000
     12747       110  CHL1      H22A            7.4306669759       15.4168273695       -6.4448730613  MEMB      110             0.0000000000
     12748       110  CHL1      H22B            5.7838245726       16.0903410741       -6.7432436299  MEMB      110             0.0000000000
     12749       110  CHL1      C23             5.9471075293       14.8026162741       -5.0383036498  MEMB      110             0.0000000000
     12750       110  CHL1      H23A            4.8747477950       14.9184365842       -4.8027724015  MEMB      110             0.0000000000
     12751       110  CHL1      H23B            6.1677842916       13.7244790196       -4.8461283881  MEMB      110             0.0000000000
     12752       110  CHL1      C24             6.6644673339       15.6696163004       -4.0571108656  MEMB      110             0.0000000000
     12753       110  CHL1      H24A            7.6910438060       15.2824059454       -4.0864298930  MEMB      110             0.0000000000
     12754       110  CHL1      H24B            6.7535912387       16.7434232565       -4.2692876663  MEMB      110             0.0000000000
     12755       110  CHL1      C25             5.9314456805       15.4068430612       -2.7598144455  MEMB      110             0.0000000000
     12756       110  CHL1      H25             5.9441075372       14.2958063067       -2.6358797236  MEMB      110             0.0000000000
     12757       110  CHL1      C26             6.5848528024       15.9994016609       -1.6741640597  MEMB      110             0.0000000000
     12758       110  CHL1      H26A            7.4329464974       15.4863235750       -2.0415228235  MEMB      110             0.0000000000
     12759       110  CHL1      H26B            6.8813413542       17.0569826394       -1.7147197273  MEMB      110             0.0000000000
     12760       110  CHL1      H26C            6.4120844468       15.6640017658       -0.6333140723  MEMB      110             0.0000000000
     12761       110  CHL1      C27             4.7218028776       16.1579405907       -2.4092966063  MEMB      110             0.0000000000
     12762       110  CHL1      H27A            4.3779028646       15.8264619115       -1.4098362707  MEMB      110             0.0000000000
     12763       110  CHL1      H27B            4.9814791138       17.2376673931       -2.2776638613  MEMB      110             0.0000000000
     12764       110  CHL1      H27C            4.0307402153       15.9727358007       -3.2137866727  MEMB      110             0.0000000000
     12765       111  CHL1      C3             -2.3633635186       16.3481631485      -17.3642852644  MEMB      111             0.0000000000
     12766       111  CHL1      H3             -3.4123935825       15.9546818133      -17.4421648709  MEMB      111             0.0000000000
     12767       111  CHL1      O3             -1.8495174625       16.5844410810      -18.6599237605  MEMB      111             0.0000000000
     12768       111  CHL1      H3'            -2.1868202005       15.8350907919      -19.1653009777  MEMB      111             0.0000000000
     12769       111  CHL1      C4             -2.3666600188       17.6535769098      -16.5666300550  MEMB      111             0.0000000000
     12770       111  CHL1      H4A            -1.3342300194       18.0267368755      -16.5802160315  MEMB      111             0.0000000000
     12771       111  CHL1      H4B            -3.0063821789       18.3876335184      -17.1041947355  MEMB      111             0.0000000000
     12772       111  CHL1      C5             -2.7161880270       17.5081730986      -15.1123750345  MEMB      111             0.0000000000
     12773       111  CHL1      C6             -3.8385316957       18.0215437929      -14.6166719270  MEMB      111             0.0000000000
     12774       111  CHL1      H6             -4.4845892789       18.6139462146      -15.2780914894  MEMB      111             0.0000000000
     12775       111  CHL1      C7             -4.2010306895       17.9072690725      -13.1749378411  MEMB      111             0.0000000000
     12776       111  CHL1      H7A            -4.6335436217       18.8241145508      -12.8700840760  MEMB      111             0.0000000000
     12777       111  CHL1      H7B            -5.0435172811       17.1956735239      -13.0607354455  MEMB      111             0.0000000000
     12778       111  CHL1      C8             -2.9663833333       17.6875326188      -12.2397801379  MEMB      111             0.0000000000
     12779       111  CHL1      H8             -2.2468214231       18.5142993633      -12.3300353042  MEMB      111             0.0000000000
     12780       111  CHL1      C14            -3.3675552128       17.3937216799      -10.7583447716  MEMB      111             0.0000000000
     12781       111  CHL1      H14            -4.1453866514       16.6298367255      -10.8118733556  MEMB      111             0.0000000000
     12782       111  CHL1      C15            -4.2682641177       18.1568927907       -9.8557179844  MEMB      111             0.0000000000
     12783       111  CHL1      H15A           -3.9655831926       19.1597464633       -9.7390114733  MEMB      111             0.0000000000
     12784       111  CHL1      H15B           -5.3367221370       17.9269931743       -9.9958472731  MEMB      111             0.0000000000
     12785       111  CHL1      C16            -4.0877661972       18.0418006620       -8.4121258397  MEMB      111             0.0000000000
     12786       111  CHL1      H16A           -3.7999638471       19.0317178032       -7.9481820939  MEMB      111             0.0000000000
     12787       111  CHL1      H16B           -5.0979629383       17.7567914063       -8.0545039592  MEMB      111             0.0000000000
     12788       111  CHL1      C17            -3.0124503330       16.9994139852       -8.4176683971  MEMB      111             0.0000000000
     12789       111  CHL1      H17            -3.6422310338       16.0847076564       -8.4253039586  MEMB      111             0.0000000000
     12790       111  CHL1      C13            -2.2780692336       17.0909971198       -9.7903330459  MEMB      111             0.0000000000
     12791       111  CHL1      C18            -1.2681748324       18.1861270633       -9.8033787768  MEMB      111             0.0000000000
     12792       111  CHL1      H18A           -1.7904950379       19.0852838748       -9.4390749308  MEMB      111             0.0000000000
     12793       111  CHL1      H18B           -0.4583408989       17.9148687795       -9.1097211325  MEMB      111             0.0000000000
     12794       111  CHL1      H18C           -0.8520207398       18.3247252179      -10.8257728321  MEMB      111             0.0000000000
     12795       111  CHL1      C12            -1.6889176047       15.8349554818      -10.2355961124  MEMB      111             0.0000000000
     12796       111  CHL1      H12A           -1.0063488794       15.2549305529       -9.6305795473  MEMB      111             0.0000000000
     12797       111  CHL1      H12B           -2.5920453031       15.3507751889       -9.8718852630  MEMB      111             0.0000000000
     12798       111  CHL1      C11            -1.2573727410       15.8168323003      -11.7307678729  MEMB      111             0.0000000000
     12799       111  CHL1      H11A           -0.3224911989       16.3729712915      -11.7684948353  MEMB      111             0.0000000000
     12800       111  CHL1      H11B           -0.9868663243       14.7713275349      -11.9706669120  MEMB      111             0.0000000000
     12801       111  CHL1      C9             -2.1896297709       16.5008709116      -12.7906812312  MEMB      111             0.0000000000
     12802       111  CHL1      H9             -3.0994496603       15.9748985587      -12.7491932792  MEMB      111             0.0000000000
     12803       111  CHL1      C10            -1.7042696253       16.6546721286      -14.3071622492  MEMB      111             0.0000000000
     12804       111  CHL1      C19            -0.3354277775       17.2356376102      -14.1868721028  MEMB      111             0.0000000000
     12805       111  CHL1      H19A            0.0345168638       17.5295084604      -15.1806705402  MEMB      111             0.0000000000
     12806       111  CHL1      H19B           -0.4092108994       18.1032452378      -13.5209213068  MEMB      111             0.0000000000
     12807       111  CHL1      H19C            0.3524947784       16.4598929835      -13.7782309036  MEMB      111             0.0000000000
     12808       111  CHL1      C1             -1.3893923189       15.4182502048      -15.2055018772  MEMB      111             0.0000000000
     12809       111  CHL1      H1A            -0.6994479643       14.6195223356      -14.8470982068  MEMB      111             0.0000000000
     12810       111  CHL1      H1B            -2.4235596140       15.1620279998      -15.2062106337  MEMB      111             0.0000000000
     12811       111  CHL1      C2             -1.3738680381       15.3840877653      -16.7328327879  MEMB      111             0.0000000000
     12812       111  CHL1      H2A            -1.5567475422       14.3520705860      -17.1200681148  MEMB      111             0.0000000000
     12813       111  CHL1      H2B            -0.3245410826       15.6418208857      -16.9027364153  MEMB      111             0.0000000000
     12814       111  CHL1      C20            -2.2517345179       17.1016698587       -7.1264359594  MEMB      111             0.0000000000
     12815       111  CHL1      H20            -1.6693095472       18.0524479978       -7.1579831661  MEMB      111             0.0000000000
     12816       111  CHL1      C21            -1.2318239968       15.9632618760       -6.9096109768  MEMB      111             0.0000000000
     12817       111  CHL1      H21A           -0.5139020050       15.8613541317       -7.7486219047  MEMB      111             0.0000000000
     12818       111  CHL1      H21B           -1.7362872007       14.9931926166       -6.7426204928  MEMB      111             0.0000000000
     12819       111  CHL1      H21C           -0.6216079085       16.1947686506       -6.0113421573  MEMB      111             0.0000000000
     12820       111  CHL1      C22            -3.3078789425       17.2436472357       -5.9898088738  MEMB      111             0.0000000000
     12821       111  CHL1      H22A           -3.6784559001       18.2937920170       -6.0171104491  MEMB      111             0.0000000000
     12822       111  CHL1      H22B           -4.1812085656       16.5676526514       -6.1577718758  MEMB      111             0.0000000000
     12823       111  CHL1      C23            -2.7839116115       17.0078629113       -4.5793277034  MEMB      111             0.0000000000
     12824       111  CHL1      H23A           -2.6992115594       15.9098256055       -4.4070935216  MEMB      111             0.0000000000
     12825       111  CHL1      H23B           -1.7706509834       17.4521857684       -4.5195435248  MEMB      111             0.0000000000
     12826       111  CHL1      C24            -3.6057560315       17.7079674534       -3.4788919026  MEMB      111             0.0000000000
     12827       111  CHL1      H24A           -3.4663498215       18.8080985869       -3.5607946246  MEMB      111             0.0000000000
     12828       111  CHL1      H24B           -4.6920696385       17.5160247468       -3.6440787605  MEMB      111             0.0000000000
     12829       111  CHL1      C25            -3.1789842573       17.2228578495       -2.0656093926  MEMB      111             0.0000000000
     12830       111  CHL1      H25            -3.3513447373       16.1278731342       -2.1017922163  MEMB      111             0.0000000000
     12831       111  CHL1      C26            -1.6955361855       17.4141587264       -1.7197156443  MEMB      111             0.0000000000
     12832       111  CHL1      H26A           -1.4254853497       18.4320336078       -1.9131625227  MEMB      111             0.0000000000
     12833       111  CHL1      H26B           -1.4685920215       17.2058182300       -0.6525007540  MEMB      111             0.0000000000
     12834       111  CHL1      H26C           -1.0292548336       16.8150328655       -2.3608101560  MEMB      111             0.0000000000
     12835       111  CHL1      C27            -4.0506876062       17.7764939945       -0.9309382619  MEMB      111             0.0000000000
     12836       111  CHL1      H27A           -3.9469183192       18.8770572018       -0.8263438158  MEMB      111             0.0000000000
     12837       111  CHL1      H27B           -5.1013411271       17.5014224082       -1.1479659487  MEMB      111             0.0000000000
     12838       111  CHL1      H27C           -3.7743595099       17.3252151532        0.0471692088  MEMB      111             0.0000000000
     12839       112  SAPE      N              16.2610819328        6.8969209107      -17.2176100448  MEMB      112             0.0000000000
     12840       112  SAPE      HN1            16.9968998067        6.2818358990      -17.6306962482  MEMB      112             0.0000000000
     12841       112  SAPE      HN2            16.6569488592        7.5161762593      -16.4807828599  MEMB      112             0.0000000000
     12842       112  SAPE      HN3            15.4900632311        6.2938795605      -16.8616247979  MEMB      112             0.0000000000
     12843       112  SAPE      C12            15.7398243340        7.6350591188      -18.4072395657  MEMB      112             0.0000000000
     12844       112  SAPE      H12A           16.1397409934        8.6608616665      -18.3885641030  MEMB      112             0.0000000000
     12845       112  SAPE      H12B           14.6326011865        7.6566065382      -18.3297800530  MEMB      112             0.0000000000
     12846       112  SAPE      C11            16.1747389148        6.8823103929      -19.6618551833  MEMB      112             0.0000000000
     12847       112  SAPE      H11A           17.2732207614        6.7509662631      -19.7164462828  MEMB      112             0.0000000000
     12848       112  SAPE      H11B           15.8729272987        7.4983613500      -20.5502814976  MEMB      112             0.0000000000
     12849       112  SAPE      P              14.9124530757        5.0582202662      -20.9823768295  MEMB      112             0.0000000000
     12850       112  SAPE      O13            13.6152063646        5.7527288084      -21.0795100996  MEMB      112             0.0000000000
     12851       112  SAPE      O14            15.8630636141        5.2702432410      -22.0921589103  MEMB      112             0.0000000000
     12852       112  SAPE      O12            15.6035787365        5.5752287387      -19.6307662823  MEMB      112             0.0000000000
     12853       112  SAPE      O11            14.7086726314        3.5212055209      -20.7889623130  MEMB      112             0.0000000000
     12854       112  SAPE      C1             14.9349976082        2.8362673960      -19.5822531118  MEMB      112             0.0000000000
     12855       112  SAPE      HA             15.3572895440        1.8479237024      -19.8561040739  MEMB      112             0.0000000000
     12856       112  SAPE      HB             15.6813633526        3.3463831976      -18.9301350393  MEMB      112             0.0000000000
     12857       112  SAPE      C2             13.5918189756        2.6269361379      -18.8371087073  MEMB      112             0.0000000000
     12858       112  SAPE      HS             12.8900572385        2.1601311260      -19.5602932445  MEMB      112             0.0000000000
     12859       112  SAPE      O21            13.1187440051        3.8841925947      -18.3498529632  MEMB      112             0.0000000000
     12860       112  SAPE      C21            11.8189577200        3.9539292164      -18.3529235753  MEMB      112             0.0000000000
     12861       112  SAPE      O22            11.0147381753        3.0908140167      -18.6396493009  MEMB      112             0.0000000000
     12862       112  SAPE      C22            11.4339983667        5.2505332347      -17.7893151631  MEMB      112             0.0000000000
     12863       112  SAPE      H2R            12.2978482213        5.8982626445      -17.5426772027  MEMB      112             0.0000000000
     12864       112  SAPE      H2S            10.7501335845        5.7579410120      -18.5127290004  MEMB      112             0.0000000000
     12865       112  SAPE      C3             13.7998200226        1.6868092763      -17.6544079007  MEMB      112             0.0000000000
     12866       112  SAPE      HX             13.9970850556        0.6916780839      -18.1059151649  MEMB      112             0.0000000000
     12867       112  SAPE      HY             12.9032629270        1.6332907283      -16.9872973227  MEMB      112             0.0000000000
     12868       112  SAPE      O31            14.9954453319        2.1124442325      -17.0206837964  MEMB      112             0.0000000000
     12869       112  SAPE      C31            15.1448817696        2.1001689884      -15.7554841270  MEMB      112             0.0000000000
     12870       112  SAPE      O32            14.3675938537        1.8794458475      -14.8640260293  MEMB      112             0.0000000000
     12871       112  SAPE      C32            16.4577688934        2.6110000673      -15.4949685203  MEMB      112             0.0000000000
     12872       112  SAPE      H2X            16.3302653460        3.5427277595      -14.9277184124  MEMB      112             0.0000000000
     12873       112  SAPE      H2Y            17.1117354789        2.6281973554      -16.3948741496  MEMB      112             0.0000000000
     12874       112  SAPE      C23            10.6570765569        4.8805605761      -16.5550265617  MEMB      112             0.0000000000
     12875       112  SAPE      H3R             9.7579453673        4.2594019804      -16.5856760858  MEMB      112             0.0000000000
     12876       112  SAPE      H3S            10.1140710414        5.8360126230      -16.5732666490  MEMB      112             0.0000000000
     12877       112  SAPE      C24            11.4584970134        4.3074140647      -15.3240297405  MEMB      112             0.0000000000
     12878       112  SAPE      H4R            11.8108390651        3.3132105049      -15.6502055157  MEMB      112             0.0000000000
     12879       112  SAPE      H4S            10.6506178014        4.1067304913      -14.5773438021  MEMB      112             0.0000000000
     12880       112  SAPE      C25            12.6117103386        5.0380274068      -14.6340737453  MEMB      112             0.0000000000
     12881       112  SAPE      H5R            13.0497486300        5.8321126339      -15.2428783714  MEMB      112             0.0000000000
     12882       112  SAPE      C26            12.9478050158        5.0236161620      -13.3145260364  MEMB      112             0.0000000000
     12883       112  SAPE      H6R            13.8287764911        5.5685249543      -12.9454878098  MEMB      112             0.0000000000
     12884       112  SAPE      C27            12.3211324087        4.3010599740      -12.1656088973  MEMB      112             0.0000000000
     12885       112  SAPE      H7R            11.2258643485        4.2972469613      -12.0425530034  MEMB      112             0.0000000000
     12886       112  SAPE      H7S            12.7446826706        4.6573511213      -11.1991450787  MEMB      112             0.0000000000
     12887       112  SAPE      C28            12.6683328021        2.9188471180      -12.4189269838  MEMB      112             0.0000000000
     12888       112  SAPE      H8R            12.2404518412        2.3357514183      -13.2380820178  MEMB      112             0.0000000000
     12889       112  SAPE      C29            13.5024770411        2.3414293980      -11.6572106534  MEMB      112             0.0000000000
     12890       112  SAPE      H9R            13.1644823719        1.3950622156      -11.3882559364  MEMB      112             0.0000000000
     12891       112  SAPE      C210           14.1306741274        2.9546932425      -10.5735664179  MEMB      112             0.0000000000
     12892       112  SAPE      H10R           13.4499698066        3.2890422144       -9.7951749439  MEMB      112             0.0000000000
     12893       112  SAPE      H10S           14.8403952182        3.6850041479      -10.9942195912  MEMB      112             0.0000000000
     12894       112  SAPE      C211           15.2823388639        2.5141048155      -10.0858317761  MEMB      112             0.0000000000
     12895       112  SAPE      H11R           15.8075307707        1.7976087575      -10.7163297881  MEMB      112             0.0000000000
     12896       112  SAPE      C212           15.3970711461        2.4547537919       -8.8386757432  MEMB      112             0.0000000000
     12897       112  SAPE      H12R           16.4247173542        2.1494846133       -8.7721243141  MEMB      112             0.0000000000
     12898       112  SAPE      C213           14.5126452728        2.6871170319       -7.6316753659  MEMB      112             0.0000000000
     12899       112  SAPE      H13R           13.4650095932        2.5521498190       -7.9594424924  MEMB      112             0.0000000000
     12900       112  SAPE      H13S           15.0453082954        3.4801934770       -7.1810133527  MEMB      112             0.0000000000
     12901       112  SAPE      C214           14.3241329872        1.9489160773       -6.3509103654  MEMB      112             0.0000000000
     12902       112  SAPE      H14R           14.4212907259        0.8982732032       -6.4056623107  MEMB      112             0.0000000000
     12903       112  SAPE      C215           14.4300498696        2.2122304482       -5.0527553355  MEMB      112             0.0000000000
     12904       112  SAPE      H15R           14.4274593539        1.3790071498       -4.2898149744  MEMB      112             0.0000000000
     12905       112  SAPE      C216           14.7825486489        3.4971073765       -4.5592777872  MEMB      112             0.0000000000
     12906       112  SAPE      H16R           14.4125415090        3.5080684907       -3.5311252903  MEMB      112             0.0000000000
     12907       112  SAPE      H16S           14.1521387995        4.0725313752       -5.2498346666  MEMB      112             0.0000000000
     12908       112  SAPE      C217           16.2603344253        3.8952507394       -4.6312379994  MEMB      112             0.0000000000
     12909       112  SAPE      H17R           16.3416590540        4.9550005302       -4.5022039568  MEMB      112             0.0000000000
     12910       112  SAPE      H17S           16.6269403454        3.6423880259       -5.6341964377  MEMB      112             0.0000000000
     12911       112  SAPE      C218           17.1332573776        3.3792399573       -3.4866829148  MEMB      112             0.0000000000
     12912       112  SAPE      H18R           16.5053862947        2.4778439145       -3.6004054213  MEMB      112             0.0000000000
     12913       112  SAPE      H18S           16.8688096575        3.7572270575       -2.4872468917  MEMB      112             0.0000000000
     12914       112  SAPE      C219           18.7335888137        3.2204362927       -3.5983485501  MEMB      112             0.0000000000
     12915       112  SAPE      H19R           19.1451282440        4.0507877267       -4.1173177852  MEMB      112             0.0000000000
     12916       112  SAPE      H19S           19.2430893253        2.5360006000       -4.2973455215  MEMB      112             0.0000000000
     12917       112  SAPE      C220           19.5611379708        2.6107253752       -2.5127315765  MEMB      112             0.0000000000
     12918       112  SAPE      H20R           20.5129495952        2.0889434895       -2.7620903285  MEMB      112             0.0000000000
     12919       112  SAPE      H20S           19.1213614137        1.6649565802       -2.3151183823  MEMB      112             0.0000000000
     12920       112  SAPE      H20T           19.4360936969        3.1593147547       -1.5821221520  MEMB      112             0.0000000000
     12921       112  SAPE      C33            17.0701340083        1.6900940850      -14.5954685498  MEMB      112             0.0000000000
     12922       112  SAPE      H3X            17.1120173927        0.6818922318      -15.0975457539  MEMB      112             0.0000000000
     12923       112  SAPE      H3Y            16.7586177809        1.6616270458      -13.5199032492  MEMB      112             0.0000000000
     12924       112  SAPE      C34            18.3943289296        2.1712370117      -14.5100705982  MEMB      112             0.0000000000
     12925       112  SAPE      H4X            18.9456122704        2.5204110458      -15.4064255047  MEMB      112             0.0000000000
     12926       112  SAPE      H4Y            18.8289671260        1.1937455701      -14.3481453788  MEMB      112             0.0000000000
     12927       112  SAPE      C35            18.5121951289        3.2128610343      -13.4557323623  MEMB      112             0.0000000000
     12928       112  SAPE      H5X            18.1791394842        4.1967699803      -13.8159964889  MEMB      112             0.0000000000
     12929       112  SAPE      H5Y            19.5626347334        3.1213723692      -13.6224480255  MEMB      112             0.0000000000
     12930       112  SAPE      C36            18.3102530049        3.0155200653      -11.9601032695  MEMB      112             0.0000000000
     12931       112  SAPE      H6X            19.0349131033        2.3561649186      -11.3917007140  MEMB      112             0.0000000000
     12932       112  SAPE      H6Y            17.3052369868        2.6517897973      -11.8400104548  MEMB      112             0.0000000000
     12933       112  SAPE      C37            18.3166525644        4.3613963902      -11.2963840016  MEMB      112             0.0000000000
     12934       112  SAPE      H7X            18.1024006300        5.2935778725      -11.8332886586  MEMB      112             0.0000000000
     12935       112  SAPE      H7Y            19.3525298626        4.4267226072      -11.4213862499  MEMB      112             0.0000000000
     12936       112  SAPE      C38            17.8902312959        4.2810158179       -9.8572514359  MEMB      112             0.0000000000
     12937       112  SAPE      H8X            18.3423391568        3.5148589029       -9.1971398779  MEMB      112             0.0000000000
     12938       112  SAPE      H8Y            16.9020143266        3.9822894616      -10.0686666885  MEMB      112             0.0000000000
     12939       112  SAPE      C39            17.7449435228        5.5422375227       -9.0945111887  MEMB      112             0.0000000000
     12940       112  SAPE      H9X            17.8375179507        6.4359078047       -9.7567796570  MEMB      112             0.0000000000
     12941       112  SAPE      H9Y            18.4741403092        5.6365128382       -8.2639145594  MEMB      112             0.0000000000
     12942       112  SAPE      C310           16.4220819988        5.3618733440       -8.4516822886  MEMB      112             0.0000000000
     12943       112  SAPE      H10X           16.4649099504        4.8382490765       -7.4650633249  MEMB      112             0.0000000000
     12944       112  SAPE      H10Y           15.5985394649        4.9986570653       -9.0918713586  MEMB      112             0.0000000000
     12945       112  SAPE      C311           15.9598348319        6.6267781939       -8.1326563575  MEMB      112             0.0000000000
     12946       112  SAPE      H11X           16.2621610331        7.4446507898       -8.8147096344  MEMB      112             0.0000000000
     12947       112  SAPE      H11Y           16.8255689450        6.8451475961       -7.4571902572  MEMB      112             0.0000000000
     12948       112  SAPE      C312           14.5234287274        6.3700619580       -7.5284258078  MEMB      112             0.0000000000
     12949       112  SAPE      H12X           13.8634976878        7.1920083949       -7.3019376924  MEMB      112             0.0000000000
     12950       112  SAPE      H12Y           14.5876818460        6.1383525851       -6.4579793420  MEMB      112             0.0000000000
     12951       112  SAPE      C313           13.3181514536        6.0273740851       -8.4005538621  MEMB      112             0.0000000000
     12952       112  SAPE      H13X           13.4546698102        4.9812028116       -8.5474164323  MEMB      112             0.0000000000
     12953       112  SAPE      H13Y           13.3974923272        6.5090849033       -9.4047774136  MEMB      112             0.0000000000
     12954       112  SAPE      C314           11.9635067983        6.4909862907       -7.7605220305  MEMB      112             0.0000000000
     12955       112  SAPE      H14X           11.1726736024        6.1685728040       -8.4524536909  MEMB      112             0.0000000000
     12956       112  SAPE      H14Y           11.8225535554        7.6046364085       -7.6218270935  MEMB      112             0.0000000000
     12957       112  SAPE      C315           11.7445948112        5.8563046584       -6.3974652949  MEMB      112             0.0000000000
     12958       112  SAPE      H15X           12.6393563779        5.9369194557       -5.7421826583  MEMB      112             0.0000000000
     12959       112  SAPE      H15Y           11.5803420106        4.7751931006       -6.5858185053  MEMB      112             0.0000000000
     12960       112  SAPE      C316           10.5529376402        6.5170719112       -5.7107146443  MEMB      112             0.0000000000
     12961       112  SAPE      H16X            9.6804654394        6.4534588259       -6.3973485908  MEMB      112             0.0000000000
     12962       112  SAPE      H16Y           10.7598183172        7.6062122966       -5.5859346559  MEMB      112             0.0000000000
     12963       112  SAPE      C317           10.1859894602        5.8352342094       -4.3913886737  MEMB      112             0.0000000000
     12964       112  SAPE      H17X           10.1660704856        4.7331675559       -4.5532184717  MEMB      112             0.0000000000
     12965       112  SAPE      H17Y            9.1533242850        6.1591495613       -4.1258928700  MEMB      112             0.0000000000
     12966       112  SAPE      C318           11.1386862645        6.1453589354       -3.2362175106  MEMB      112             0.0000000000
     12967       112  SAPE      H18X           12.1289837920        5.6787624690       -3.3939784107  MEMB      112             0.0000000000
     12968       112  SAPE      H18Y           10.7624746315        5.7646963036       -2.2654319599  MEMB      112             0.0000000000
     12969       112  SAPE      H18Z           11.2921208846        7.2417640509       -3.1760252429  MEMB      112             0.0000000000
     12970       113  SAPC      N               8.8277224368      -15.3400916321      -18.2749755865  MEMB      113             0.0000000000
     12971       113  SAPC      C12             9.1624864618      -16.2595666112      -19.4447171141  MEMB      113             0.0000000000
     12972       113  SAPC      H12A            9.6305929008      -17.1464951330      -19.0472320623  MEMB      113             0.0000000000
     12973       113  SAPC      H12B            9.9036522102      -15.7907009449      -20.0907638141  MEMB      113             0.0000000000
     12974       113  SAPC      C13             7.6116594893      -15.8003701073      -17.5369620118  MEMB      113             0.0000000000
     12975       113  SAPC      H13A            7.6655518160      -16.8411171782      -17.2549226468  MEMB      113             0.0000000000
     12976       113  SAPC      H13B            7.4597713232      -15.1846602716      -16.6580907523  MEMB      113             0.0000000000
     12977       113  SAPC      H13C            6.7215560123      -15.7025908258      -18.1676676334  MEMB      113             0.0000000000
     12978       113  SAPC      C14            10.0002359059      -15.2331301850      -17.3625193317  MEMB      113             0.0000000000
     12979       113  SAPC      H14A            9.7068607851      -14.7347260569      -16.4428289895  MEMB      113             0.0000000000
     12980       113  SAPC      H14B           10.4361428395      -16.2009463417      -17.1534185675  MEMB      113             0.0000000000
     12981       113  SAPC      H14C           10.7772764712      -14.6490452879      -17.8409787650  MEMB      113             0.0000000000
     12982       113  SAPC      C15             8.5459047794      -13.9656115346      -18.7616440280  MEMB      113             0.0000000000
     12983       113  SAPC      H15A            7.6628146716      -13.9885845851      -19.4011043991  MEMB      113             0.0000000000
     12984       113  SAPC      H15B            8.3517378852      -13.3117136064      -17.9221874623  MEMB      113             0.0000000000
     12985       113  SAPC      H15C            9.3751636260      -13.6150747601      -19.3546267663  MEMB      113             0.0000000000
     12986       113  SAPC      C11             8.0619171803      -16.6648846438      -20.4452192802  MEMB      113             0.0000000000
     12987       113  SAPC      H11A            7.1535632674      -17.1034603761      -19.9565667918  MEMB      113             0.0000000000
     12988       113  SAPC      H11B            8.5026977175      -17.4696937937      -21.0743979840  MEMB      113             0.0000000000
     12989       113  SAPC      P               6.4016373921      -15.1325301760      -21.7864933559  MEMB      113             0.0000000000
     12990       113  SAPC      O13             6.3690379188      -13.7473892803      -22.3135698001  MEMB      113             0.0000000000
     12991       113  SAPC      O14             5.7498234530      -16.1703096461      -22.6243191866  MEMB      113             0.0000000000
     12992       113  SAPC      O12             7.8229783255      -15.5488183764      -21.2992027728  MEMB      113             0.0000000000
     12993       113  SAPC      O11             5.7753653448      -15.1405853704      -20.3249759731  MEMB      113             0.0000000000
     12994       113  SAPC      C1              4.4082989976      -14.8806474335      -20.1686118051  MEMB      113             0.0000000000
     12995       113  SAPC      HA              3.8772013722      -15.4385817296      -20.9505940219  MEMB      113             0.0000000000
     12996       113  SAPC      HB              3.9454472870      -15.4520323691      -19.3456645376  MEMB      113             0.0000000000
     12997       113  SAPC      C2              4.1469933293      -13.3412752818      -20.0162379902  MEMB      113             0.0000000000
     12998       113  SAPC      HS              4.3955786816      -12.7842856036      -20.9549344825  MEMB      113             0.0000000000
     12999       113  SAPC      O21             4.9661186561      -12.7995667674      -19.0858614654  MEMB      113             0.0000000000
     13000       113  SAPC      C21             4.7858357556      -11.5944794029      -18.7717670130  MEMB      113             0.0000000000
     13001       113  SAPC      O22             4.0348950721      -10.7306250750      -19.2023965425  MEMB      113             0.0000000000
     13002       113  SAPC      C22             5.7934770459      -11.5293223387      -17.7279288272  MEMB      113             0.0000000000
     13003       113  SAPC      H2R             6.0710849940      -12.5266448751      -17.3187688007  MEMB      113             0.0000000000
     13004       113  SAPC      H2S             6.6789625600      -10.9903825895      -18.1181170937  MEMB      113             0.0000000000
     13005       113  SAPC      C3              2.7120418937      -13.1875650170      -19.5454076853  MEMB      113             0.0000000000
     13006       113  SAPC      HX              1.9589348078      -13.6412346844      -20.0926938606  MEMB      113             0.0000000000
     13007       113  SAPC      HY              2.3830767116      -12.0967696954      -19.6287717617  MEMB      113             0.0000000000
     13008       113  SAPC      O31             2.5997886165      -13.9131479741      -18.3142729322  MEMB      113             0.0000000000
     13009       113  SAPC      C31             1.7604214991      -14.9555947126      -18.0218653327  MEMB      113             0.0000000000
     13010       113  SAPC      O32             1.1814400134      -15.5487823531      -18.9178593277  MEMB      113             0.0000000000
     13011       113  SAPC      C32             1.6224651850      -15.2685064438      -16.4217378647  MEMB      113             0.0000000000
     13012       113  SAPC      H2X             0.9296878411      -15.0079013269      -15.6215110130  MEMB      113             0.0000000000
     13013       113  SAPC      H2Y             1.1535688699      -14.5523496577      -15.7441062926  MEMB      113             0.0000000000
     13014       113  SAPC      C23             5.0695537133      -10.9077677800      -16.6331078732  MEMB      113             0.0000000000
     13015       113  SAPC      H3R             4.0784987569      -11.2199895517      -16.2733805410  MEMB      113             0.0000000000
     13016       113  SAPC      H3S             4.7057900944       -9.9936036646      -17.1027253969  MEMB      113             0.0000000000
     13017       113  SAPC      C24             5.9527080771      -10.9289457100      -15.4257710644  MEMB      113             0.0000000000
     13018       113  SAPC      H4R             5.7681562817      -11.6867036084      -14.6561885623  MEMB      113             0.0000000000
     13019       113  SAPC      H4S             5.2239399729      -10.2196444250      -15.0233509835  MEMB      113             0.0000000000
     13020       113  SAPC      C25             7.4286210065      -10.5369466804      -15.5809439586  MEMB      113             0.0000000000
     13021       113  SAPC      H5R             7.6038366353       -9.6150458275      -16.1684768522  MEMB      113             0.0000000000
     13022       113  SAPC      C26             8.4703272478      -11.1656289601      -14.9930115375  MEMB      113             0.0000000000
     13023       113  SAPC      H6R             9.5047355514      -10.8178069446      -15.1751789736  MEMB      113             0.0000000000
     13024       113  SAPC      C27             8.3588603150      -12.3693713690      -14.0875828045  MEMB      113             0.0000000000
     13025       113  SAPC      H7R             8.8404032711      -13.2196766704      -14.6013478516  MEMB      113             0.0000000000
     13026       113  SAPC      H7S             7.3091062691      -12.6844158588      -13.9723812575  MEMB      113             0.0000000000
     13027       113  SAPC      C28             8.9881250818      -12.2152435021      -12.7245043281  MEMB      113             0.0000000000
     13028       113  SAPC      H8R            10.0885995957      -12.2164058810      -12.7165642652  MEMB      113             0.0000000000
     13029       113  SAPC      C29             8.3377237792      -12.2291508453      -11.5438132752  MEMB      113             0.0000000000
     13030       113  SAPC      H9R             8.9085261280      -12.0873239939      -10.6114366767  MEMB      113             0.0000000000
     13031       113  SAPC      C210            6.8531588666      -12.4038096022      -11.3559128501  MEMB      113             0.0000000000
     13032       113  SAPC      H10R            6.6689071860      -13.2605310903      -10.6939406658  MEMB      113             0.0000000000
     13033       113  SAPC      H10S            6.3376399476      -12.6369190836      -12.3038719016  MEMB      113             0.0000000000
     13034       113  SAPC      C211            6.1432873246      -11.2521305386      -10.7573023288  MEMB      113             0.0000000000
     13035       113  SAPC      H11R            6.2743588040      -10.3421609378      -11.3188147837  MEMB      113             0.0000000000
     13036       113  SAPC      C212            5.5552281890      -11.2122004144       -9.5585577720  MEMB      113             0.0000000000
     13037       113  SAPC      H12R            4.9281736176      -10.3717646941       -9.3047182453  MEMB      113             0.0000000000
     13038       113  SAPC      C213            5.4721875588      -12.2974378108       -8.5417313271  MEMB      113             0.0000000000
     13039       113  SAPC      H13R            5.2378835856      -13.2363696725       -9.0777772041  MEMB      113             0.0000000000
     13040       113  SAPC      H13S            4.6240694294      -12.0945302350       -7.8588955954  MEMB      113             0.0000000000
     13041       113  SAPC      C214            6.7039111858      -12.5572117435       -7.7225440431  MEMB      113             0.0000000000
     13042       113  SAPC      H14R            7.0585815874      -13.5810109205       -7.8672839847  MEMB      113             0.0000000000
     13043       113  SAPC      C215            7.3640441321      -11.7353080522       -6.8809700913  MEMB      113             0.0000000000
     13044       113  SAPC      H15R            8.2360121526      -12.1110963567       -6.3203935150  MEMB      113             0.0000000000
     13045       113  SAPC      C216            6.9863521177      -10.3153597810       -6.5678747451  MEMB      113             0.0000000000
     13046       113  SAPC      H16R            5.9241640735      -10.1302216059       -6.8464522673  MEMB      113             0.0000000000
     13047       113  SAPC      H16S            7.5989595562       -9.6285558140       -7.1834577981  MEMB      113             0.0000000000
     13048       113  SAPC      C217            7.1806492739      -10.0132095009       -5.0700595198  MEMB      113             0.0000000000
     13049       113  SAPC      H17R            7.0924999187       -8.9163659830       -4.8885446632  MEMB      113             0.0000000000
     13050       113  SAPC      H17S            8.1794185441      -10.3257038005       -4.7073039192  MEMB      113             0.0000000000
     13051       113  SAPC      C218            6.1091375873      -10.7389012004       -4.2766299359  MEMB      113             0.0000000000
     13052       113  SAPC      H18R            6.1628429691      -11.8443379435       -4.4097384010  MEMB      113             0.0000000000
     13053       113  SAPC      H18S            5.1696170206      -10.3574828080       -4.7156181488  MEMB      113             0.0000000000
     13054       113  SAPC      C219            6.0891925788      -10.4929487827       -2.7826344947  MEMB      113             0.0000000000
     13055       113  SAPC      H19R            5.2016032444      -10.9832647476       -2.3371713583  MEMB      113             0.0000000000
     13056       113  SAPC      H19S            6.0092050352       -9.4077693040       -2.6248937123  MEMB      113             0.0000000000
     13057       113  SAPC      C220            7.3506885811      -10.9858726127       -2.1231132472  MEMB      113             0.0000000000
     13058       113  SAPC      H20R            7.2338026873      -11.1546833365       -1.0325297211  MEMB      113             0.0000000000
     13059       113  SAPC      H20S            8.1180702162      -10.2062400940       -2.2974963911  MEMB      113             0.0000000000
     13060       113  SAPC      H20T            7.6699280825      -11.9209302649       -2.6301377598  MEMB      113             0.0000000000
     13061       113  SAPC      C33             2.7885861578      -15.3883494403      -15.6192055760  MEMB      113             0.0000000000
     13062       113  SAPC      H3X             2.5151459930      -16.3649261761      -16.0014257318  MEMB      113             0.0000000000
     13063       113  SAPC      H3Y             2.2826311475      -15.3485556309      -14.5530760766  MEMB      113             0.0000000000
     13064       113  SAPC      C34             4.2049417939      -14.5732149274      -16.0197366974  MEMB      113             0.0000000000
     13065       113  SAPC      H4X             4.3673840288      -13.4463649070      -15.9523086495  MEMB      113             0.0000000000
     13066       113  SAPC      H4Y             4.3292100924      -14.4874270223      -17.0911939531  MEMB      113             0.0000000000
     13067       113  SAPC      C35             5.4527729290      -14.7666082328      -15.2275646561  MEMB      113             0.0000000000
     13068       113  SAPC      H5X             5.3641520208      -14.5753215128      -14.1681692174  MEMB      113             0.0000000000
     13069       113  SAPC      H5Y             6.2256414119      -14.0039547019      -15.1557281565  MEMB      113             0.0000000000
     13070       113  SAPC      C36             5.4477013250      -16.1846151291      -15.0240477903  MEMB      113             0.0000000000
     13071       113  SAPC      H6X             5.3412626870      -16.6986757039      -15.9943401809  MEMB      113             0.0000000000
     13072       113  SAPC      H6Y             4.4660247073      -16.2882026412      -14.7219939834  MEMB      113             0.0000000000
     13073       113  SAPC      C37             6.2548202967      -16.5816692007      -13.7839048906  MEMB      113             0.0000000000
     13074       113  SAPC      H7X             7.0801660925      -15.8827917687      -13.9740214884  MEMB      113             0.0000000000
     13075       113  SAPC      H7Y             6.3766435402      -17.6527267995      -14.0024503827  MEMB      113             0.0000000000
     13076       113  SAPC      C38             5.8177093541      -16.4215609135      -12.2700474155  MEMB      113             0.0000000000
     13077       113  SAPC      H8X             5.2279578320      -17.2690780023      -11.8560404142  MEMB      113             0.0000000000
     13078       113  SAPC      H8Y             5.2715658213      -15.5063806961      -12.0462249874  MEMB      113             0.0000000000
     13079       113  SAPC      C39             6.8184373947      -16.7930669985      -11.2444735752  MEMB      113             0.0000000000
     13080       113  SAPC      H9X             7.4869213274      -15.9227535100      -11.3058652595  MEMB      113             0.0000000000
     13081       113  SAPC      H9Y             7.2730314127      -17.7169485330      -11.6759115680  MEMB      113             0.0000000000
     13082       113  SAPC      C310            6.1979774921      -17.0769071246       -9.8498854964  MEMB      113             0.0000000000
     13083       113  SAPC      H10X            5.5664251998      -17.9957811647       -9.8185518837  MEMB      113             0.0000000000
     13084       113  SAPC      H10Y            5.5277985910      -16.2515709232       -9.5072538681  MEMB      113             0.0000000000
     13085       113  SAPC      C311            7.3577710178      -17.2520585493       -8.8881262470  MEMB      113             0.0000000000
     13086       113  SAPC      H11X            7.8960843918      -16.2787330886       -8.9217150149  MEMB      113             0.0000000000
     13087       113  SAPC      H11Y            8.0352155796      -18.0379886753       -9.2867343736  MEMB      113             0.0000000000
     13088       113  SAPC      C312            6.9626218993      -17.6959098213       -7.4830535454  MEMB      113             0.0000000000
     13089       113  SAPC      H12X            7.8784772245      -17.9425023437       -6.8979092744  MEMB      113             0.0000000000
     13090       113  SAPC      H12Y            6.3936112312      -18.6500480178       -7.5557250903  MEMB      113             0.0000000000
     13091       113  SAPC      C313            6.1385459066      -16.6324187629       -6.7549697171  MEMB      113             0.0000000000
     13092       113  SAPC      H13X            5.1007451984      -16.6447491129       -7.1556339187  MEMB      113             0.0000000000
     13093       113  SAPC      H13Y            6.5195251469      -15.6203631321       -7.0044258446  MEMB      113             0.0000000000
     13094       113  SAPC      C314            6.1858807083      -16.8289351282       -5.2301520137  MEMB      113             0.0000000000
     13095       113  SAPC      H14X            7.2204060571      -17.0576530574       -4.8786132126  MEMB      113             0.0000000000
     13096       113  SAPC      H14Y            5.5414322779      -17.6924227149       -4.9756480959  MEMB      113             0.0000000000
     13097       113  SAPC      C315            5.7373931206      -15.6130238633       -4.4333792968  MEMB      113             0.0000000000
     13098       113  SAPC      H15X            6.2423882053      -14.7129372348       -4.8637605595  MEMB      113             0.0000000000
     13099       113  SAPC      H15Y            6.0285486721      -15.6874045705       -3.3648579577  MEMB      113             0.0000000000
     13100       113  SAPC      C316            4.2369914305      -15.3910957836       -4.4434700643  MEMB      113             0.0000000000
     13101       113  SAPC      H16X            3.9233962392      -15.2177306784       -5.5013296898  MEMB      113             0.0000000000
     13102       113  SAPC      H16Y            4.1553582739      -14.4524940831       -3.8605312994  MEMB      113             0.0000000000
     13103       113  SAPC      C317            3.3240471543      -16.3222474833       -3.6290515295  MEMB      113             0.0000000000
     13104       113  SAPC      H17X            3.3795417547      -17.3305234822       -4.0830169920  MEMB      113             0.0000000000
     13105       113  SAPC      H17Y            2.2637150004      -15.9937441302       -3.7040944833  MEMB      113             0.0000000000
     13106       113  SAPC      C318            3.6049267793      -16.3376314636       -2.1205608724  MEMB      113             0.0000000000
     13107       113  SAPC      H18X            4.5738925347      -16.8348588662       -1.9242938967  MEMB      113             0.0000000000
     13108       113  SAPC      H18Y            2.8148213108      -16.9049587125       -1.5879219747  MEMB      113             0.0000000000
     13109       113  SAPC      H18Z            3.6100948519      -15.3109378434       -1.6830554570  MEMB      113             0.0000000000
     13110       114  SLPC      N             -16.2946010794       -1.9732535126      -15.5052855402  MEMB      114             0.0000000000
     13111       114  SLPC      C13           -17.4451234644       -1.5635014237      -14.6655653134  MEMB      114             0.0000000000
     13112       114  SLPC      H13A          -17.3770202614       -0.5270281921      -14.3825163446  MEMB      114             0.0000000000
     13113       114  SLPC      H13B          -18.3455929382       -1.6940874040      -15.2554035104  MEMB      114             0.0000000000
     13114       114  SLPC      H13C          -17.5044092459       -2.1633211450      -13.7521079884  MEMB      114             0.0000000000
     13115       114  SLPC      C14           -16.4172234238       -3.4589347922      -15.7547370469  MEMB      114             0.0000000000
     13116       114  SLPC      H14A          -15.4486538617       -3.8268640838      -16.1007255155  MEMB      114             0.0000000000
     13117       114  SLPC      H14B          -16.4228248874       -4.0226036325      -14.8104002607  MEMB      114             0.0000000000
     13118       114  SLPC      H14C          -17.1942324401       -3.7700289932      -16.4202801340  MEMB      114             0.0000000000
     13119       114  SLPC      C15           -15.0878394434       -1.6177778091      -14.7718063329  MEMB      114             0.0000000000
     13120       114  SLPC      H15A          -14.8048069224       -0.5981091662      -14.5662851782  MEMB      114             0.0000000000
     13121       114  SLPC      H15B          -15.3098847596       -2.0545342938      -13.7951495749  MEMB      114             0.0000000000
     13122       114  SLPC      H15C          -14.2079030310       -2.2144427896      -15.0371262505  MEMB      114             0.0000000000
     13123       114  SLPC      C12           -16.1194625837       -1.3638871820      -16.8310544745  MEMB      114             0.0000000000
     13124       114  SLPC      H12A          -15.3646527490       -1.9769366358      -17.3298112179  MEMB      114             0.0000000000
     13125       114  SLPC      H12B          -15.6726214003       -0.3831500693      -16.7239849892  MEMB      114             0.0000000000
     13126       114  SLPC      C11           -17.3980888605       -1.2847341581      -17.6627348593  MEMB      114             0.0000000000
     13127       114  SLPC      H11A          -17.0969337074       -0.9225592848      -18.6734952614  MEMB      114             0.0000000000
     13128       114  SLPC      H11B          -18.0335413955       -0.5123616022      -17.1794011432  MEMB      114             0.0000000000
     13129       114  SLPC      P             -19.4408871511       -2.6016116271      -18.6383192912  MEMB      114             0.0000000000
     13130       114  SLPC      O13           -19.4958270409       -1.4153457471      -19.5200888673  MEMB      114             0.0000000000
     13131       114  SLPC      O14           -19.5352829806       -3.9302216101      -19.2360553214  MEMB      114             0.0000000000
     13132       114  SLPC      O12           -18.1152881682       -2.5279716034      -17.7238724104  MEMB      114             0.0000000000
     13133       114  SLPC      O11           -20.6789740386       -2.5891495845      -17.6416459091  MEMB      114             0.0000000000
     13134       114  SLPC      C1            -22.0439068897       -2.6992394814      -18.1288327209  MEMB      114             0.0000000000
     13135       114  SLPC      HA            -22.3253434549       -1.7748071054      -18.6894436134  MEMB      114             0.0000000000
     13136       114  SLPC      HB            -22.1882057876       -3.2762316614      -19.0426299322  MEMB      114             0.0000000000
     13137       114  SLPC      C2            -23.0999195395       -2.8401316436      -16.8885757234  MEMB      114             0.0000000000
     13138       114  SLPC      HS            -24.0824186603       -2.3043476898      -17.4048147912  MEMB      114             0.0000000000
     13139       114  SLPC      O21           -22.5776272765       -2.2464712312      -15.2669667735  MEMB      114             0.0000000000
     13140       114  SLPC      C21           -22.4067900665       -0.8409737407      -14.4723448311  MEMB      114             0.0000000000
     13141       114  SLPC      O22           -22.9966215445        0.2085652908      -14.6113584611  MEMB      114             0.0000000000
     13142       114  SLPC      C22           -21.2633093668       -0.6260791746      -13.8235469165  MEMB      114             0.0000000000
     13143       114  SLPC      H2R           -21.5430317053       -1.0630932519      -12.9053191420  MEMB      114             0.0000000000
     13144       114  SLPC      H2S           -20.3590385041       -1.0579320508      -14.3760181364  MEMB      114             0.0000000000
     13145       114  SLPC      C3            -23.3867187193       -4.1223423605      -16.9718609281  MEMB      114             0.0000000000
     13146       114  SLPC      HX            -24.4039575088       -4.4794207885      -17.3012316111  MEMB      114             0.0000000000
     13147       114  SLPC      HY            -23.7582803003       -3.6946667858      -16.1765152472  MEMB      114             0.0000000000
     13148       114  SLPC      O31           -22.1276144324       -4.7845981519      -16.8659788686  MEMB      114             0.0000000000
     13149       114  SLPC      C31           -21.3532563594       -4.9047307607      -15.7711109281  MEMB      114             0.0000000000
     13150       114  SLPC      O32           -21.5372599548       -4.5598377004      -14.6469796678  MEMB      114             0.0000000000
     13151       114  SLPC      C32           -20.1639640054       -5.7714414125      -15.9546442766  MEMB      114             0.0000000000
     13152       114  SLPC      H2X           -19.5708236052       -5.0458585420      -16.5204922431  MEMB      114             0.0000000000
     13153       114  SLPC      H2Y           -20.4120311639       -6.6295667617      -16.5635016665  MEMB      114             0.0000000000
     13154       114  SLPC      C23           -21.3619016846        0.9319434980      -13.7573691200  MEMB      114             0.0000000000
     13155       114  SLPC      H3R           -21.9889907656        1.8135467571      -13.9739801123  MEMB      114             0.0000000000
     13156       114  SLPC      H3S           -20.8460711641        0.7103982862      -14.7809630231  MEMB      114             0.0000000000
     13157       114  SLPC      C24           -21.2550527534        2.0297393545      -12.6534555446  MEMB      114             0.0000000000
     13158       114  SLPC      H4R           -20.7926786044        3.0325721477      -12.9229839348  MEMB      114             0.0000000000
     13159       114  SLPC      H4S           -20.3087119705        2.1515326490      -12.5674382219  MEMB      114             0.0000000000
     13160       114  SLPC      C25           -21.6126275096        1.5244292077      -11.2700746914  MEMB      114             0.0000000000
     13161       114  SLPC      H5R           -21.4794346858        0.4547267920      -11.0655377260  MEMB      114             0.0000000000
     13162       114  SLPC      H5S           -22.5804312070        1.7549053287      -11.4208589310  MEMB      114             0.0000000000
     13163       114  SLPC      C26           -21.2853006059        2.2330049892      -10.0192374923  MEMB      114             0.0000000000
     13164       114  SLPC      H6R           -21.3316556068        3.3332293646      -10.0393495741  MEMB      114             0.0000000000
     13165       114  SLPC      H6S           -20.2977220684        1.7803575159       -9.6950524147  MEMB      114             0.0000000000
     13166       114  SLPC      C27           -21.8965064519        2.0229158707       -8.7817842795  MEMB      114             0.0000000000
     13167       114  SLPC      H7R           -22.9353714062        2.1884075573       -9.0423463325  MEMB      114             0.0000000000
     13168       114  SLPC      H7S           -21.5295201917        2.8753184754       -8.1058633908  MEMB      114             0.0000000000
     13169       114  SLPC      C28           -21.4248916220        0.6246032187       -8.6841126591  MEMB      114             0.0000000000
     13170       114  SLPC      H8R           -20.3936437554        0.2066879078       -8.6084362156  MEMB      114             0.0000000000
     13171       114  SLPC      H8S           -22.1549190047        0.0789531283       -9.3059271433  MEMB      114             0.0000000000
     13172       114  SLPC      C29           -22.1196682729        0.8034168434       -7.6073691875  MEMB      114             0.0000000000
     13173       114  SLPC      H9R           -21.9943643177        1.5612693582       -6.7371208621  MEMB      114             0.0000000000
     13174       114  SLPC      C210          -21.7734221548       -0.1589344753       -7.0547811618  MEMB      114             0.0000000000
     13175       114  SLPC      H10R          -22.9955282705       -0.2472966539       -6.7669502291  MEMB      114             0.0000000000
     13176       114  SLPC      C211          -21.0388273905       -1.9451507889       -6.8108914584  MEMB      114             0.0000000000
     13177       114  SLPC      H11R          -20.1285925439       -2.2501260974       -7.1246382720  MEMB      114             0.0000000000
     13178       114  SLPC      H11S          -21.2868068636       -1.2716599990       -7.5201197070  MEMB      114             0.0000000000
     13179       114  SLPC      C212          -22.0282730508       -3.2771828656       -5.8426848296  MEMB      114             0.0000000000
     13180       114  SLPC      H12R          -23.3892339723       -3.1053006102       -5.8501947933  MEMB      114             0.0000000000
     13181       114  SLPC      C213          -22.0676851701       -3.8460617306       -4.8864238172  MEMB      114             0.0000000000
     13182       114  SLPC      H13R          -23.1083643968       -4.0381321576       -4.7176533477  MEMB      114             0.0000000000
     13183       114  SLPC      C214          -21.0756239643       -3.7000745849       -3.9462594663  MEMB      114             0.0000000000
     13184       114  SLPC      H14R          -21.4872346510       -3.2870867586       -2.9892882479  MEMB      114             0.0000000000
     13185       114  SLPC      H14S          -20.3673038057       -3.0217418101       -4.4210681619  MEMB      114             0.0000000000
     13186       114  SLPC      C215          -20.3293647422       -4.8261407074       -3.8047105522  MEMB      114             0.0000000000
     13187       114  SLPC      H15R          -20.1679545331       -5.5377321187       -4.5611643396  MEMB      114             0.0000000000
     13188       114  SLPC      H15S          -21.0342448822       -5.5537855347       -3.6440820705  MEMB      114             0.0000000000
     13189       114  SLPC      C216          -19.4089493010       -4.5459730306       -2.6885328771  MEMB      114             0.0000000000
     13190       114  SLPC      H16R          -19.0553398940       -5.4172054051       -2.1853011403  MEMB      114             0.0000000000
     13191       114  SLPC      H16S          -19.8322763203       -4.1835622351       -1.7397300133  MEMB      114             0.0000000000
     13192       114  SLPC      C217          -18.3085385813       -3.8353565889       -3.2631630304  MEMB      114             0.0000000000
     13193       114  SLPC      H17R          -18.8547588530       -2.8539923381       -3.3297662039  MEMB      114             0.0000000000
     13194       114  SLPC      H17S          -18.3174358453       -4.2713963315       -4.2604662223  MEMB      114             0.0000000000
     13195       114  SLPC      C218          -17.1489442433       -4.2467665760       -2.3298230156  MEMB      114             0.0000000000
     13196       114  SLPC      H18R          -16.1678687242       -3.8306958767       -2.4951332203  MEMB      114             0.0000000000
     13197       114  SLPC      H18S          -17.4253104255       -4.9507782851       -1.4970359554  MEMB      114             0.0000000000
     13198       114  SLPC      H18T          -17.0448787408       -3.6250948345       -1.4762647634  MEMB      114             0.0000000000
     13199       114  SLPC      C33           -19.5146102278       -6.2972379009      -14.6138029889  MEMB      114             0.0000000000
     13200       114  SLPC      H3X           -18.5944665083       -6.8206448950      -14.9448007634  MEMB      114             0.0000000000
     13201       114  SLPC      H3Y           -20.1168709576       -7.0458357612      -14.0501245239  MEMB      114             0.0000000000
     13202       114  SLPC      C34           -19.1246390595       -5.2349882077      -13.5584692951  MEMB      114             0.0000000000
     13203       114  SLPC      H4X           -20.0368469606       -4.7607454627      -13.1403315475  MEMB      114             0.0000000000
     13204       114  SLPC      H4Y           -18.4893585654       -4.4679084287      -14.0380617827  MEMB      114             0.0000000000
     13205       114  SLPC      C35           -18.4282224570       -5.7817391868      -12.3143987386  MEMB      114             0.0000000000
     13206       114  SLPC      H5X           -17.5163260849       -6.2961086692      -12.6894924186  MEMB      114             0.0000000000
     13207       114  SLPC      H5Y           -19.0891307791       -6.5195983933      -11.8101732901  MEMB      114             0.0000000000
     13208       114  SLPC      C36           -17.9501355496       -4.6916437366      -11.3246058639  MEMB      114             0.0000000000
     13209       114  SLPC      H6X           -17.3496478859       -3.9838524112      -11.9316453761  MEMB      114             0.0000000000
     13210       114  SLPC      H6Y           -17.2978043086       -5.1915192054      -10.5866879275  MEMB      114             0.0000000000
     13211       114  SLPC      C37           -19.0269172956       -3.8946707705      -10.5621120808  MEMB      114             0.0000000000
     13212       114  SLPC      H7X           -19.6728421567       -4.6058504786       -9.9990340443  MEMB      114             0.0000000000
     13213       114  SLPC      H7Y           -19.6253456724       -3.3928675601      -11.3560663765  MEMB      114             0.0000000000
     13214       114  SLPC      C38           -18.5590742558       -2.7295111132       -9.6426796895  MEMB      114             0.0000000000
     13215       114  SLPC      H8X           -19.4673844724       -2.1782083242       -9.3581908427  MEMB      114             0.0000000000
     13216       114  SLPC      H8Y           -17.9938407831       -1.9691928020      -10.2105628573  MEMB      114             0.0000000000
     13217       114  SLPC      C39           -17.9125275372       -3.1137416484       -8.2974291880  MEMB      114             0.0000000000
     13218       114  SLPC      H9X           -17.1983852442       -3.9325387349       -8.4542075187  MEMB      114             0.0000000000
     13219       114  SLPC      H9Y           -18.7128353333       -3.5282232330       -7.6438922896  MEMB      114             0.0000000000
     13220       114  SLPC      C310          -17.0592284228       -2.0244983361       -7.6074254404  MEMB      114             0.0000000000
     13221       114  SLPC      H10X          -16.4464979288       -1.4802000132       -8.3507366800  MEMB      114             0.0000000000
     13222       114  SLPC      H10Y          -16.3695865760       -2.5432326213       -6.8920156035  MEMB      114             0.0000000000
     13223       114  SLPC      C311          -17.7921083193       -1.0248432914       -6.7304893861  MEMB      114             0.0000000000
     13224       114  SLPC      H11X          -18.4042792243       -1.6778071771       -6.0649645579  MEMB      114             0.0000000000
     13225       114  SLPC      H11Y          -18.4942858247       -0.3733587651       -7.3008708081  MEMB      114             0.0000000000
     13226       114  SLPC      C312          -16.7953170968       -0.1931184684       -5.8976723921  MEMB      114             0.0000000000
     13227       114  SLPC      H12X          -16.1656953183        0.5027833158       -6.4906277894  MEMB      114             0.0000000000
     13228       114  SLPC      H12Y          -16.1508796276       -0.8403037365       -5.2727728579  MEMB      114             0.0000000000
     13229       114  SLPC      C313          -17.5094205516        0.6646266582       -4.9201078905  MEMB      114             0.0000000000
     13230       114  SLPC      H13X          -18.1011867664        1.2870367384       -5.5355823161  MEMB      114             0.0000000000
     13231       114  SLPC      H13Y          -16.8785476755        1.2718257613       -4.2496755983  MEMB      114             0.0000000000
     13232       114  SLPC      C314          -18.4507613080       -0.1356020415       -4.0895739615  MEMB      114             0.0000000000
     13233       114  SLPC      H14X          -17.8051795366       -0.6896347869       -3.3988648961  MEMB      114             0.0000000000
     13234       114  SLPC      H14Y          -19.1705058483       -0.7170287973       -4.6305430463  MEMB      114             0.0000000000
     13235       114  SLPC      C315          -19.3274035987        0.6463989713       -3.2386815112  MEMB      114             0.0000000000
     13236       114  SLPC      H15X          -20.0374581620        1.4027193999       -3.5837947143  MEMB      114             0.0000000000
     13237       114  SLPC      H15Y          -18.4698646933        1.2639142197       -2.9573012780  MEMB      114             0.0000000000
     13238       114  SLPC      C316          -20.2456412752       -0.1075212904       -2.1096099360  MEMB      114             0.0000000000
     13239       114  SLPC      H16X          -20.4133897242       -1.0687172293       -2.4039947380  MEMB      114             0.0000000000
     13240       114  SLPC      H16Y          -20.8647623356        0.6644070498       -2.2475836768  MEMB      114             0.0000000000
     13241       114  SLPC      C317          -21.4777554808        0.6738045868       -0.9899716520  MEMB      114             0.0000000000
     13242       114  SLPC      H17X          -21.8700203746        1.7092151443       -1.2167168653  MEMB      114             0.0000000000
     13243       114  SLPC      H17Y          -21.2090506144        1.4491205816       -0.2017467206  MEMB      114             0.0000000000
     13244       114  SLPC      C318          -22.0160020628       -0.1905442193        0.0204287234  MEMB      114             0.0000000000
     13245       114  SLPC      H18X          -22.5261507654       -0.9502334613       -0.5927861669  MEMB      114             0.0000000000
     13246       114  SLPC      H18Y          -22.6973148835        0.5202390769        0.5675357730  MEMB      114             0.0000000000
     13247       114  SLPC      H18Z          -21.3151797372       -0.7227379123        0.6571641670  MEMB      114             0.0000000000
     13248       115  SAPS      N              16.5061973381       -1.5066031805      -21.0233483069  MEMB      115             0.0000000000
     13249       115  SAPS      HN1            17.2524904530       -1.9937361729      -21.5596048127  MEMB      115             0.0000000000
     13250       115  SAPS      HN2            15.6680197869       -2.1217468974      -20.9349378158  MEMB      115             0.0000000000
     13251       115  SAPS      HN3            16.3048315301       -0.5729797742      -21.4127727834  MEMB      115             0.0000000000
     13252       115  SAPS      C12            17.0502531519       -1.2999712486      -19.6694652466  MEMB      115             0.0000000000
     13253       115  SAPS      H12A           16.5702824898       -0.4594945819      -19.2090802896  MEMB      115             0.0000000000
     13254       115  SAPS      C13            16.7495374133       -2.4137129100      -18.7323960508  MEMB      115             0.0000000000
     13255       115  SAPS      O13A           16.2063749167       -3.4158528884      -19.2470778682  MEMB      115             0.0000000000
     13256       115  SAPS      O13B           17.5325311659       -2.4197467006      -17.7512648389  MEMB      115             0.0000000000
     13257       115  SAPS      C11            18.5747001665       -1.1737263734      -19.7716483135  MEMB      115             0.0000000000
     13258       115  SAPS      H11A           19.0332020808       -2.1057760191      -20.1899131204  MEMB      115             0.0000000000
     13259       115  SAPS      H11B           19.0311375846       -1.0280464228      -18.7615436237  MEMB      115             0.0000000000
     13260       115  SAPS      P              20.3274955854        0.2524781808      -20.9451820696  MEMB      115             0.0000000000
     13261       115  SAPS      O13            20.6203497350       -0.4826584466      -22.1967241664  MEMB      115             0.0000000000
     13262       115  SAPS      O14            20.5935653551        1.6921781906      -20.8705568763  MEMB      115             0.0000000000
     13263       115  SAPS      O12            18.8305177320       -0.0483245228      -20.5957600017  MEMB      115             0.0000000000
     13264       115  SAPS      O11            21.0996001946       -0.4530589310      -19.8089445995  MEMB      115             0.0000000000
     13265       115  SAPS      C1             22.0153259165        0.2641505183      -18.9857610371  MEMB      115             0.0000000000
     13266       115  SAPS      HA             22.9846074972       -0.2743849277      -19.0780419314  MEMB      115             0.0000000000
     13267       115  SAPS      HB             22.2877209484        1.2760061881      -19.3310019342  MEMB      115             0.0000000000
     13268       115  SAPS      C2             21.6395409273        0.2093119442      -17.4517160212  MEMB      115             0.0000000000
     13269       115  SAPS      HS             22.6175452455        0.3033442685      -16.9165927048  MEMB      115             0.0000000000
     13270       115  SAPS      O21            20.8915590354       -0.9169967380      -16.9166654980  MEMB      115             0.0000000000
     13271       115  SAPS      C21            21.4970839617       -2.0070975233      -17.1967781881  MEMB      115             0.0000000000
     13272       115  SAPS      O22            22.3762942307       -2.0679253232      -18.0339771786  MEMB      115             0.0000000000
     13273       115  SAPS      C22            20.8580781029       -3.2321619840      -16.5407055717  MEMB      115             0.0000000000
     13274       115  SAPS      H2R            19.7907331575       -2.9757941223      -16.6288527112  MEMB      115             0.0000000000
     13275       115  SAPS      H2S            21.0846891638       -4.0892550021      -17.2042298302  MEMB      115             0.0000000000
     13276       115  SAPS      C3             20.8160827003        1.3600899476      -16.9590591507  MEMB      115             0.0000000000
     13277       115  SAPS      HX             19.9376142812        1.5171843453      -17.6448302191  MEMB      115             0.0000000000
     13278       115  SAPS      HY             21.4438447192        2.2612904090      -17.0037623598  MEMB      115             0.0000000000
     13279       115  SAPS      O31            20.4411294262        1.0087813830      -15.5998567404  MEMB      115             0.0000000000
     13280       115  SAPS      C31            21.2788403884        1.3680218102      -14.5947513447  MEMB      115             0.0000000000
     13281       115  SAPS      O32            22.3544590844        1.8886264408      -14.8083729952  MEMB      115             0.0000000000
     13282       115  SAPS      C32            20.7703554191        1.1431050185      -13.1258864709  MEMB      115             0.0000000000
     13283       115  SAPS      H2X            19.7649080810        1.3645587128      -12.8700465730  MEMB      115             0.0000000000
     13284       115  SAPS      H2Y            21.0136608013        1.9582009893      -12.4401398229  MEMB      115             0.0000000000
     13285       115  SAPS      C23            21.2743923771       -3.7200708223      -15.1208068426  MEMB      115             0.0000000000
     13286       115  SAPS      H3R            21.2555294736       -2.9030295919      -14.3801024448  MEMB      115             0.0000000000
     13287       115  SAPS      H3S            22.3378319326       -4.0257459662      -15.1475031464  MEMB      115             0.0000000000
     13288       115  SAPS      C24            20.4725439121       -4.9770935660      -14.7019519137  MEMB      115             0.0000000000
     13289       115  SAPS      H4R            21.0209304268       -5.4764795813      -13.8738021577  MEMB      115             0.0000000000
     13290       115  SAPS      H4S            20.5223357150       -5.7055428296      -15.5380792385  MEMB      115             0.0000000000
     13291       115  SAPS      C25            19.0294404259       -4.6228488103      -14.4031791359  MEMB      115             0.0000000000
     13292       115  SAPS      H5R            18.5817608401       -3.9223745404      -15.1285115621  MEMB      115             0.0000000000
     13293       115  SAPS      C26            18.2318775352       -4.9762936026      -13.3826485878  MEMB      115             0.0000000000
     13294       115  SAPS      H6R            17.2113760004       -4.5749850796      -13.3958495351  MEMB      115             0.0000000000
     13295       115  SAPS      C27            18.5413745027       -5.8569694370      -12.2060343208  MEMB      115             0.0000000000
     13296       115  SAPS      H7R            19.3956541439       -6.5005861858      -12.4477339583  MEMB      115             0.0000000000
     13297       115  SAPS      H7S            17.6972702599       -6.5658724147      -12.0315629299  MEMB      115             0.0000000000
     13298       115  SAPS      C28            18.8747294020       -5.0284194254      -10.9947885753  MEMB      115             0.0000000000
     13299       115  SAPS      H8R            19.7751470727       -4.4170253280      -10.9891172303  MEMB      115             0.0000000000
     13300       115  SAPS      C29            18.3197317538       -5.0981131384       -9.8167619397  MEMB      115             0.0000000000
     13301       115  SAPS      H9R            18.7494545566       -4.5447839772       -8.9637900515  MEMB      115             0.0000000000
     13302       115  SAPS      C210           17.2289411893       -6.0288342858       -9.5293299555  MEMB      115             0.0000000000
     13303       115  SAPS      H10R           17.1329146432       -6.9475480770       -8.8622556413  MEMB      115             0.0000000000
     13304       115  SAPS      H10S           16.5415565439       -6.3748792618      -10.3411599940  MEMB      115             0.0000000000
     13305       115  SAPS      C211           16.6222214993       -5.4684628342       -8.4984125881  MEMB      115             0.0000000000
     13306       115  SAPS      H11R           15.7954294848       -6.0158302429       -8.5484978272  MEMB      115             0.0000000000
     13307       115  SAPS      C212           16.9202704930       -4.9998884445       -7.2944877268  MEMB      115             0.0000000000
     13308       115  SAPS      H12R           16.0371802974       -4.5552318430       -7.1986035179  MEMB      115             0.0000000000
     13309       115  SAPS      C213           18.0139676534       -5.0432678187       -6.3047210301  MEMB      115             0.0000000000
     13310       115  SAPS      H13R           18.6411150623       -5.7821824069       -6.5820596946  MEMB      115             0.0000000000
     13311       115  SAPS      H13S           17.5832783667       -5.3564664292       -5.3122604124  MEMB      115             0.0000000000
     13312       115  SAPS      C214           18.5591223039       -3.6595179489       -6.1785842027  MEMB      115             0.0000000000
     13313       115  SAPS      H14R           18.9264653009       -3.2906800728       -7.1362216616  MEMB      115             0.0000000000
     13314       115  SAPS      C215           18.3347861205       -2.7874297967       -5.1819689914  MEMB      115             0.0000000000
     13315       115  SAPS      H15R           18.6979502074       -1.7622868898       -5.3053165347  MEMB      115             0.0000000000
     13316       115  SAPS      C216           17.4822608801       -3.0253518925       -3.9709459686  MEMB      115             0.0000000000
     13317       115  SAPS      H16R           16.8695177165       -3.9329753970       -3.9811273083  MEMB      115             0.0000000000
     13318       115  SAPS      H16S           16.7941692038       -2.1880104548       -3.7144965719  MEMB      115             0.0000000000
     13319       115  SAPS      C217           18.3293006477       -3.4029916590       -2.8415599069  MEMB      115             0.0000000000
     13320       115  SAPS      H17R           17.5273160638       -3.5364287397       -2.0616175396  MEMB      115             0.0000000000
     13321       115  SAPS      H17S           19.0345139074       -2.6195176510       -2.5220449551  MEMB      115             0.0000000000
     13322       115  SAPS      C218           19.2192836839       -4.5945083916       -3.1625297284  MEMB      115             0.0000000000
     13323       115  SAPS      H18R           19.9201764457       -4.5288810747       -4.0118627952  MEMB      115             0.0000000000
     13324       115  SAPS      H18S           18.5552860729       -5.4773013626       -3.3657801710  MEMB      115             0.0000000000
     13325       115  SAPS      C219           20.0300860992       -4.6769244900       -1.9195291695  MEMB      115             0.0000000000
     13326       115  SAPS      H19R           20.5583171352       -3.8716981767       -1.4069666522  MEMB      115             0.0000000000
     13327       115  SAPS      H19S           20.9314230313       -5.2436992578       -2.1700181607  MEMB      115             0.0000000000
     13328       115  SAPS      C220           18.8602213194       -4.8469971967       -0.9870847348  MEMB      115             0.0000000000
     13329       115  SAPS      H20R           19.6564622697       -4.9440365816       -0.1842572104  MEMB      115             0.0000000000
     13330       115  SAPS      H20S           18.2157279807       -5.6725691072       -1.4305651165  MEMB      115             0.0000000000
     13331       115  SAPS      H20T           18.4380797370       -5.0052295669        0.0004965927  MEMB      115             0.0000000000
     13332       115  SAPS      C33            20.4911622408       -0.2642786059      -12.6545503831  MEMB      115             0.0000000000
     13333       115  SAPS      H3X            20.1602337633       -0.1541986212      -11.5922644490  MEMB      115             0.0000000000
     13334       115  SAPS      H3Y            21.4901567695       -0.6607028944      -12.5995636388  MEMB      115             0.0000000000
     13335       115  SAPS      C34            19.6342998533       -1.1808265414      -13.5754095375  MEMB      115             0.0000000000
     13336       115  SAPS      H4X            19.7334698097       -2.2122434448      -13.1821370433  MEMB      115             0.0000000000
     13337       115  SAPS      H4Y            19.8062859987       -1.1214730951      -14.6618484479  MEMB      115             0.0000000000
     13338       115  SAPS      C35            18.1904891930       -1.0903380455      -13.4083965325  MEMB      115             0.0000000000
     13339       115  SAPS      H5X            17.5358853697       -1.7839489195      -13.9822713488  MEMB      115             0.0000000000
     13340       115  SAPS      H5Y            17.8566150729       -0.1596583799      -13.6931616991  MEMB      115             0.0000000000
     13341       115  SAPS      C36            18.1074248280       -0.8000937107      -11.9915953560  MEMB      115             0.0000000000
     13342       115  SAPS      H6X            17.2217312949       -0.4789410502      -11.7175206766  MEMB      115             0.0000000000
     13343       115  SAPS      H6Y            18.1673095579        0.2585328277      -11.6462307777  MEMB      115             0.0000000000
     13344       115  SAPS      C37            18.0718502796       -1.9645890882      -11.1556749877  MEMB      115             0.0000000000
     13345       115  SAPS      H7X            18.9233735391       -2.6016197069      -11.2368547603  MEMB      115             0.0000000000
     13346       115  SAPS      H7Y            17.4002227252       -2.8231474353      -11.4045191621  MEMB      115             0.0000000000
     13347       115  SAPS      C38            17.8188066833       -1.2704959571       -9.8704697354  MEMB      115             0.0000000000
     13348       115  SAPS      H8X            18.5909734204       -0.9598083572       -9.2153167045  MEMB      115             0.0000000000
     13349       115  SAPS      H8Y            17.7902001067       -2.3298705274       -9.4721722395  MEMB      115             0.0000000000
     13350       115  SAPS      C39            16.6521684520       -0.0820377002       -9.5685621212  MEMB      115             0.0000000000
     13351       115  SAPS      H9X            15.7027544057       -0.0190825873      -10.1477721861  MEMB      115             0.0000000000
     13352       115  SAPS      H9Y            17.1697628955        0.7607801335       -9.9604980691  MEMB      115             0.0000000000
     13353       115  SAPS      C310           16.0394932977        0.1894246619       -8.0756558173  MEMB      115             0.0000000000
     13354       115  SAPS      H10X           15.2123034036       -0.2405317954       -7.4786944711  MEMB      115             0.0000000000
     13355       115  SAPS      H10Y           14.9494571536        0.4073809171       -8.2228520760  MEMB      115             0.0000000000
     13356       115  SAPS      C311           17.1804467093        0.5948223499       -7.2380266829  MEMB      115             0.0000000000
     13357       115  SAPS      H11X           17.7004335694        1.4667539580       -7.6867423809  MEMB      115             0.0000000000
     13358       115  SAPS      H11Y           17.9708538165       -0.1522929297       -7.1539215807  MEMB      115             0.0000000000
     13359       115  SAPS      C312           16.7647742748        0.8631292509       -5.9021729583  MEMB      115             0.0000000000
     13360       115  SAPS      H12X           15.9967153395        0.2679809038       -5.3736792763  MEMB      115             0.0000000000
     13361       115  SAPS      H12Y           16.4863265139        1.8891614099       -6.2839380179  MEMB      115             0.0000000000
     13362       115  SAPS      C313           17.8544484531        1.0436998718       -5.0834063516  MEMB      115             0.0000000000
     13363       115  SAPS      H13X           17.8241277230        2.1216255381       -5.2386938865  MEMB      115             0.0000000000
     13364       115  SAPS      H13Y           18.8099153948        1.0029320276       -5.6197790937  MEMB      115             0.0000000000
     13365       115  SAPS      C314           17.8536434972        0.3686178250       -3.6843566422  MEMB      115             0.0000000000
     13366       115  SAPS      H14X           18.9362324317        0.4656840266       -3.5948979009  MEMB      115             0.0000000000
     13367       115  SAPS      H14Y           17.8793727110       -0.6766319696       -3.8011823267  MEMB      115             0.0000000000
     13368       115  SAPS      C315           16.9287948444        0.7342130333       -2.4223574310  MEMB      115             0.0000000000
     13369       115  SAPS      H15X           15.8702347856        0.6466868786       -2.7052940513  MEMB      115             0.0000000000
     13370       115  SAPS      H15Y           17.0537917502        1.7570111898       -1.9821070046  MEMB      115             0.0000000000
     13371       115  SAPS      C316           17.1422946256        0.2783871330       -1.0138693806  MEMB      115             0.0000000000
     13372       115  SAPS      H16X           17.1262544261       -0.8123200831       -1.0569933358  MEMB      115             0.0000000000
     13373       115  SAPS      H16Y           16.3928608733        0.7692706278       -0.3415522905  MEMB      115             0.0000000000
     13374       115  SAPS      C317           18.4356578890        0.6784899298       -0.5021691098  MEMB      115             0.0000000000
     13375       115  SAPS      H17X           18.8122745064        1.7245637109       -0.5408712088  MEMB      115             0.0000000000
     13376       115  SAPS      H17Y           19.1320075519       -0.0396291669       -1.0195862368  MEMB      115             0.0000000000
     13377       115  SAPS      C318           18.5789553349        0.7161573796        0.8773163830  MEMB      115             0.0000000000
     13378       115  SAPS      H18X           19.6135591573        0.4777868852        0.8567662760  MEMB      115             0.0000000000
     13379       115  SAPS      H18Y           18.3363571743       -0.1919218826        1.4124567082  MEMB      115             0.0000000000
     13380       115  SAPS      H18Z           18.6410158582        1.7177542992        1.4001681722  MEMB      115             0.0000000000
     13381       116  SOPE      N              15.1449185498       12.5805180652      -19.8352025489  MEMB      116             0.0000000000
     13382       116  SOPE      HN1            15.5583353755       12.4695636268      -20.7866676157  MEMB      116             0.0000000000
     13383       116  SOPE      HN2            14.7282873043       13.5291132027      -19.7760415285  MEMB      116             0.0000000000
     13384       116  SOPE      HN3            15.9168700782       12.5334864470      -19.1377671128  MEMB      116             0.0000000000
     13385       116  SOPE      C12            14.0996401482       11.5008293645      -19.6420547917  MEMB      116             0.0000000000
     13386       116  SOPE      H12A           13.6706165435       11.5994908816      -18.6213209699  MEMB      116             0.0000000000
     13387       116  SOPE      H12B           14.6391963004       10.5368932818      -19.7098807021  MEMB      116             0.0000000000
     13388       116  SOPE      C11            12.9836645355       11.5975269521      -20.7011868488  MEMB      116             0.0000000000
     13389       116  SOPE      H11A           12.2583157585       10.7567067110      -20.5970032705  MEMB      116             0.0000000000
     13390       116  SOPE      H11B           13.4006037807       11.4874240836      -21.7278078335  MEMB      116             0.0000000000
     13391       116  SOPE      P              12.1593523815       13.9666967993      -21.5980631265  MEMB      116             0.0000000000
     13392       116  SOPE      O13            11.6762489403       13.3889599700      -22.8688424362  MEMB      116             0.0000000000
     13393       116  SOPE      O14            13.4686273329       14.6636145894      -21.6461087822  MEMB      116             0.0000000000
     13394       116  SOPE      O12            12.2877677855       12.8179562265      -20.5157514958  MEMB      116             0.0000000000
     13395       116  SOPE      O11            11.0846688471       14.9031975016      -20.9658979205  MEMB      116             0.0000000000
     13396       116  SOPE      C1             10.0836461790       14.3872145559      -20.0952640029  MEMB      116             0.0000000000
     13397       116  SOPE      HA              9.9486849101       13.2780068949      -20.1862128269  MEMB      116             0.0000000000
     13398       116  SOPE      HB              9.1170544351       14.8241748248      -20.4048063642  MEMB      116             0.0000000000
     13399       116  SOPE      C2             10.2945263834       14.7765921416      -18.6037873194  MEMB      116             0.0000000000
     13400       116  SOPE      HS              9.9231507248       15.8203550760      -18.4477158622  MEMB      116             0.0000000000
     13401       116  SOPE      O21            11.6536646852       14.6198835285      -18.2050667238  MEMB      116             0.0000000000
     13402       116  SOPE      C21            12.4422308742       15.6631523811      -18.1952133331  MEMB      116             0.0000000000
     13403       116  SOPE      O22            12.1682104227       16.8186915873      -18.4379469581  MEMB      116             0.0000000000
     13404       116  SOPE      C22            13.8124100010       15.1582688793      -17.7386641191  MEMB      116             0.0000000000
     13405       116  SOPE      H2R            14.4282107406       16.0368765086      -17.4656795553  MEMB      116             0.0000000000
     13406       116  SOPE      H2S            14.2999217818       14.6322786431      -18.5739448659  MEMB      116             0.0000000000
     13407       116  SOPE      C3              9.4670199234       13.8285594118      -17.7198517412  MEMB      116             0.0000000000
     13408       116  SOPE      HX              8.4690706798       13.8552574835      -18.1755491604  MEMB      116             0.0000000000
     13409       116  SOPE      HY              9.4289893102       14.1742853835      -16.6615389020  MEMB      116             0.0000000000
     13410       116  SOPE      O31             9.8599698619       12.4661102682      -17.8649662479  MEMB      116             0.0000000000
     13411       116  SOPE      C31            10.8051672030       12.0138226356      -17.0837611936  MEMB      116             0.0000000000
     13412       116  SOPE      O32            11.2711221895       12.5625476533      -16.1040612543  MEMB      116             0.0000000000
     13413       116  SOPE      C32            11.0731911711       10.5747496335      -17.6077915937  MEMB      116             0.0000000000
     13414       116  SOPE      H2X            11.3938961686       10.6712393685      -18.6494706588  MEMB      116             0.0000000000
     13415       116  SOPE      H2Y            10.1222140330       10.0905229064      -17.8530687433  MEMB      116             0.0000000000
     13416       116  SOPE      C23            13.7299316633       14.2287462527      -16.5141165349  MEMB      116             0.0000000000
     13417       116  SOPE      H3R            13.5149223794       13.1861940122      -16.8431300085  MEMB      116             0.0000000000
     13418       116  SOPE      H3S            12.8903508059       14.5178179208      -15.8373660027  MEMB      116             0.0000000000
     13419       116  SOPE      C24            15.0497498570       14.2384044447      -15.7435823117  MEMB      116             0.0000000000
     13420       116  SOPE      H4R            15.8053492068       13.7978602117      -16.4308719630  MEMB      116             0.0000000000
     13421       116  SOPE      H4S            15.3808424284       15.2473416444      -15.4333194016  MEMB      116             0.0000000000
     13422       116  SOPE      C25            14.8975445211       13.4920769953      -14.4381466837  MEMB      116             0.0000000000
     13423       116  SOPE      H5R            13.9446694155       13.7114456239      -13.9304347499  MEMB      116             0.0000000000
     13424       116  SOPE      H5S            14.6028152908       12.5043939500      -14.7118847575  MEMB      116             0.0000000000
     13425       116  SOPE      C26            16.0208564829       13.6158737637      -13.4068482446  MEMB      116             0.0000000000
     13426       116  SOPE      H6R            15.5581699763       13.1493662607      -12.5354789465  MEMB      116             0.0000000000
     13427       116  SOPE      H6S            16.9941470336       13.1176661269      -13.5826327992  MEMB      116             0.0000000000
     13428       116  SOPE      C27            16.2037293839       14.9929603264      -12.8344351721  MEMB      116             0.0000000000
     13429       116  SOPE      H7R            17.1782093946       15.3859191365      -13.1824336480  MEMB      116             0.0000000000
     13430       116  SOPE      H7S            15.3611029536       15.5732308414      -13.2513352991  MEMB      116             0.0000000000
     13431       116  SOPE      C28            16.1198855272       15.0486152695      -11.3092291930  MEMB      116             0.0000000000
     13432       116  SOPE      H8R            16.2971074826       16.1002364665      -11.0529132033  MEMB      116             0.0000000000
     13433       116  SOPE      H8S            15.1015053848       14.7806845165      -10.9333237880  MEMB      116             0.0000000000
     13434       116  SOPE      C29            17.2574218748       14.3885236823      -10.6214524679  MEMB      116             0.0000000000
     13435       116  SOPE      H91            18.1270772097       14.1283623992      -11.2259593332  MEMB      116             0.0000000000
     13436       116  SOPE      C210           17.1472096900       13.8501228511       -9.4400778385  MEMB      116             0.0000000000
     13437       116  SOPE      H101           17.9599585297       13.2227784013       -9.0246833076  MEMB      116             0.0000000000
     13438       116  SOPE      C211           15.8840994600       13.8109655903       -8.6774954239  MEMB      116             0.0000000000
     13439       116  SOPE      H11R           16.0104711165       12.9168541809       -8.2049336350  MEMB      116             0.0000000000
     13440       116  SOPE      H11S           14.9046602900       13.4519878873       -9.0754579627  MEMB      116             0.0000000000
     13441       116  SOPE      C212           15.9506154241       14.6292402743       -7.5028491990  MEMB      116             0.0000000000
     13442       116  SOPE      H12R           16.0322125694       15.6002767405       -7.9845353627  MEMB      116             0.0000000000
     13443       116  SOPE      H12S           16.8298918944       14.4263156414       -6.8419746853  MEMB      116             0.0000000000
     13444       116  SOPE      C213           14.6773676968       14.4561585869       -6.7951851866  MEMB      116             0.0000000000
     13445       116  SOPE      H13R           14.6152655869       13.5834232624       -6.1049432094  MEMB      116             0.0000000000
     13446       116  SOPE      H13S           13.7860928049       14.4464594665       -7.4766291722  MEMB      116             0.0000000000
     13447       116  SOPE      C214           14.6478983577       15.6380492378       -5.9581663819  MEMB      116             0.0000000000
     13448       116  SOPE      H14R           14.3589865084       16.4753982379       -6.6213873459  MEMB      116             0.0000000000
     13449       116  SOPE      H14S           15.5614138568       15.9942356054       -5.4491954209  MEMB      116             0.0000000000
     13450       116  SOPE      C215           13.7127293366       15.1965474505       -4.9160583006  MEMB      116             0.0000000000
     13451       116  SOPE      H15R           13.6529228943       14.2736038822       -4.3467936396  MEMB      116             0.0000000000
     13452       116  SOPE      H15S           12.7600902098       15.1839329594       -5.5252374526  MEMB      116             0.0000000000
     13453       116  SOPE      C216           13.9680327460       16.1005734004       -3.7692932813  MEMB      116             0.0000000000
     13454       116  SOPE      H16R           12.9259185483       15.9739046689       -3.3404959593  MEMB      116             0.0000000000
     13455       116  SOPE      H16S           14.2994263434       17.1321624119       -4.1165191899  MEMB      116             0.0000000000
     13456       116  SOPE      C217           14.9424443815       16.0830557619       -2.6779584257  MEMB      116             0.0000000000
     13457       116  SOPE      H17R           14.9372404153       15.1067622302       -2.5038426135  MEMB      116             0.0000000000
     13458       116  SOPE      H17S           14.5891300895       16.2579554398       -1.6454277313  MEMB      116             0.0000000000
     13459       116  SOPE      C218           16.0288722434       17.1296329501       -2.7704831172  MEMB      116             0.0000000000
     13460       116  SOPE      H18R           15.8194482924       18.1691709062       -2.4214168773  MEMB      116             0.0000000000
     13461       116  SOPE      H18S           16.3495822871       17.3387026650       -3.8120656519  MEMB      116             0.0000000000
     13462       116  SOPE      H18T           16.7596764270       16.7944684437       -2.0253326275  MEMB      116             0.0000000000
     13463       116  SOPE      C33            12.0910562265        9.6849645718      -16.8116506810  MEMB      116             0.0000000000
     13464       116  SOPE      H3X            12.9422610180       10.3369374724      -16.6201232870  MEMB      116             0.0000000000
     13465       116  SOPE      H3Y            12.1982918881        8.7631045169      -17.4215041306  MEMB      116             0.0000000000
     13466       116  SOPE      C34            11.8651218918        9.0022164831      -15.4690354009  MEMB      116             0.0000000000
     13467       116  SOPE      H4X            11.1614455883        8.2587969768      -15.6699615890  MEMB      116             0.0000000000
     13468       116  SOPE      H4Y            11.4416400891        9.6789985139      -14.8298727294  MEMB      116             0.0000000000
     13469       116  SOPE      C35            12.8814224048        8.5951629008      -14.4117230447  MEMB      116             0.0000000000
     13470       116  SOPE      H5X            13.5359933271        7.9688111029      -15.0043271107  MEMB      116             0.0000000000
     13471       116  SOPE      H5Y            12.4970772142        8.0279642823      -13.5152432989  MEMB      116             0.0000000000
     13472       116  SOPE      C36            13.4228567367        9.8397858554      -13.7706587911  MEMB      116             0.0000000000
     13473       116  SOPE      H6X            13.4391740748       10.6327641247      -14.5352749283  MEMB      116             0.0000000000
     13474       116  SOPE      H6Y            14.3460980188        9.5779446570      -13.3081588198  MEMB      116             0.0000000000
     13475       116  SOPE      C37            12.6158373255       10.4753317753      -12.6938827498  MEMB      116             0.0000000000
     13476       116  SOPE      H7X            12.1721508505        9.6542508484      -12.1816594334  MEMB      116             0.0000000000
     13477       116  SOPE      H7Y            11.8924165682       11.0166074466      -13.2821840783  MEMB      116             0.0000000000
     13478       116  SOPE      C38            13.2136540633       11.3625963094      -11.6518073775  MEMB      116             0.0000000000
     13479       116  SOPE      H8X            12.6325928173       11.8768385923      -10.9150762217  MEMB      116             0.0000000000
     13480       116  SOPE      H8Y            13.7732970414       12.1907848637      -12.0901839584  MEMB      116             0.0000000000
     13481       116  SOPE      C39            13.9071847253       10.5115753170      -10.7240397229  MEMB      116             0.0000000000
     13482       116  SOPE      H9X            14.2500053617       11.1071570811       -9.8770823456  MEMB      116             0.0000000000
     13483       116  SOPE      H9Y            14.5143697154        9.9881694252      -11.4690832454  MEMB      116             0.0000000000
     13484       116  SOPE      C310           13.4693830906        9.2972335302      -10.1175805895  MEMB      116             0.0000000000
     13485       116  SOPE      H10X           13.2709686908        8.4429316675      -10.8365813434  MEMB      116             0.0000000000
     13486       116  SOPE      H10Y           12.7313662728        9.7321386995       -9.3953284586  MEMB      116             0.0000000000
     13487       116  SOPE      C311           14.1775845426        8.7121778255       -9.0526934884  MEMB      116             0.0000000000
     13488       116  SOPE      H11X           14.8393077588        8.0418014903       -9.6225352865  MEMB      116             0.0000000000
     13489       116  SOPE      H11Y           13.3165272338        8.2383353125       -8.6469184003  MEMB      116             0.0000000000
     13490       116  SOPE      C312           14.4641289373        9.4947397928       -7.8144617908  MEMB      116             0.0000000000
     13491       116  SOPE      H12X           13.9609270911       10.4413360980       -7.5990242610  MEMB      116             0.0000000000
     13492       116  SOPE      H12Y           15.0945283900        9.9171606370       -8.5518566385  MEMB      116             0.0000000000
     13493       116  SOPE      C313           15.0969222205        8.7496651385       -6.5872765601  MEMB      116             0.0000000000
     13494       116  SOPE      H13X           16.0824004189        8.2409531263       -6.7351381653  MEMB      116             0.0000000000
     13495       116  SOPE      H13Y           14.5081359267        8.0688438809       -5.9511930391  MEMB      116             0.0000000000
     13496       116  SOPE      C314           14.9299000267        9.4354616850       -5.3965774279  MEMB      116             0.0000000000
     13497       116  SOPE      H14X           14.3299344994       10.3124398535       -5.5421585474  MEMB      116             0.0000000000
     13498       116  SOPE      H14Y           15.8059839793        9.6567120530       -5.9197347945  MEMB      116             0.0000000000
     13499       116  SOPE      C315           15.4399301614        9.0439765047       -4.0432599777  MEMB      116             0.0000000000
     13500       116  SOPE      H15X           16.5263502518        8.7427094575       -4.0249020557  MEMB      116             0.0000000000
     13501       116  SOPE      H15Y           14.9898744515        8.0897128852       -3.7749396171  MEMB      116             0.0000000000
     13502       116  SOPE      C316           14.7797165009       10.1120624039       -3.0850382386  MEMB      116             0.0000000000
     13503       116  SOPE      H16X           15.1162516182        9.8893515221       -2.0519405173  MEMB      116             0.0000000000
     13504       116  SOPE      H16Y           13.7193055211        9.9003710591       -3.1704480931  MEMB      116             0.0000000000
     13505       116  SOPE      C317           14.9779675631       11.6553947572       -3.2627829727  MEMB      116             0.0000000000
     13506       116  SOPE      H17X           14.7734193985       12.0480558603       -4.2780196763  MEMB      116             0.0000000000
     13507       116  SOPE      H17Y           15.9420333288       12.0375531027       -2.8978465767  MEMB      116             0.0000000000
     13508       116  SOPE      C318           14.3838327169       12.6005282835       -2.3231243137  MEMB      116             0.0000000000
     13509       116  SOPE      H18X           13.3977080857       12.7605474809       -2.7755199278  MEMB      116             0.0000000000
     13510       116  SOPE      H18Y           15.0442969341       13.4703802322       -2.3909551504  MEMB      116             0.0000000000
     13511       116  SOPE      H18Z           14.5122050773       12.1643243877       -1.3193262134  MEMB      116             0.0000000000
     13512       117  OSM       N             -14.1812455320       -8.7748794457      -21.9744546473  MEMB      117             0.0000000000
     13513       117  OSM       C15           -13.2135772043       -8.1254554340      -22.8877994351  MEMB      117             0.0000000000
     13514       117  OSM       H15A          -13.0038525652       -7.1264740456      -22.5232505770  MEMB      117             0.0000000000
     13515       117  OSM       H15B          -13.6267117353       -8.0918000324      -23.8908084645  MEMB      117             0.0000000000
     13516       117  OSM       H15C          -12.2805502225       -8.7053201772      -22.8805723091  MEMB      117             0.0000000000
     13517       117  OSM       C14           -13.7454597420       -8.5863906434      -20.5563221158  MEMB      117             0.0000000000
     13518       117  OSM       H14A          -13.8643293714       -7.5502740835      -20.2551800795  MEMB      117             0.0000000000
     13519       117  OSM       H14B          -12.6787322963       -8.7831213735      -20.4293266715  MEMB      117             0.0000000000
     13520       117  OSM       H14C          -14.3480611913       -9.1955032535      -19.9008588679  MEMB      117             0.0000000000
     13521       117  OSM       C13           -15.4983089366       -8.1140609124      -22.1345563936  MEMB      117             0.0000000000
     13522       117  OSM       H13A          -15.9401585346       -8.3477282777      -23.0784375898  MEMB      117             0.0000000000
     13523       117  OSM       H13B          -15.3886621203       -7.0438543156      -22.0754732217  MEMB      117             0.0000000000
     13524       117  OSM       H13C          -16.1986453729       -8.4714630851      -21.3767081356  MEMB      117             0.0000000000
     13525       117  OSM       C12           -14.2051201254      -10.2191760735      -22.3301788449  MEMB      117             0.0000000000
     13526       117  OSM       H12A          -13.3194851514      -10.6768027623      -21.9056690690  MEMB      117             0.0000000000
     13527       117  OSM       H12B          -14.1216792115      -10.2782568825      -23.4095163420  MEMB      117             0.0000000000
     13528       117  OSM       C11           -15.4170701558      -11.0140314488      -21.8766143131  MEMB      117             0.0000000000
     13529       117  OSM       H11A          -15.2131886163      -12.0759702970      -22.1345192800  MEMB      117             0.0000000000
     13530       117  OSM       H11B          -16.2990667502      -10.6645534534      -22.4835112932  MEMB      117             0.0000000000
     13531       117  OSM       P             -17.0394603195      -10.7629592700      -19.9019696674  MEMB      117             0.0000000000
     13532       117  OSM       O13           -17.7807044749       -9.9068124290      -20.8038341165  MEMB      117             0.0000000000
     13533       117  OSM       O14           -17.3779959619      -12.1877137224      -19.7828900970  MEMB      117             0.0000000000
     13534       117  OSM       O11           -16.8907194486      -10.1109863719      -18.4951634601  MEMB      117             0.0000000000
     13535       117  OSM       O12           -15.5579443576      -10.8614143291      -20.4578021768  MEMB      117             0.0000000000
     13536       117  OSM       C1S           -15.6692197435      -10.2653278164      -17.8077240802  MEMB      117             0.0000000000
     13537       117  OSM       H1S           -15.0100937386       -9.4253334954      -18.1112696029  MEMB      117             0.0000000000
     13538       117  OSM       H1T           -15.1236987369      -11.2069877758      -18.0446253485  MEMB      117             0.0000000000
     13539       117  OSM       NF            -14.7877466255      -10.0504638612      -15.5927712993  MEMB      117             0.0000000000
     13540       117  OSM       HNF           -14.4600303264      -10.8022638006      -15.0512630780  MEMB      117             0.0000000000
     13541       117  OSM       C2S           -15.9853113985      -10.2596284863      -16.2990695593  MEMB      117             0.0000000000
     13542       117  OSM       H2S           -16.7030451574       -9.4269801636      -16.1187191531  MEMB      117             0.0000000000
     13543       117  OSM       C3S           -16.6067185396      -11.5754183163      -15.8027322329  MEMB      117             0.0000000000
     13544       117  OSM       H3S           -15.8889792232      -12.3860001636      -16.0770589939  MEMB      117             0.0000000000
     13545       117  OSM       O3            -17.8656544686      -11.8841166231      -16.3793716048  MEMB      117             0.0000000000
     13546       117  OSM       HO3           -18.0557893423      -11.1743219995      -17.0052357981  MEMB      117             0.0000000000
     13547       117  OSM       C4S           -16.7831632456      -11.5554242105      -14.2639718155  MEMB      117             0.0000000000
     13548       117  OSM       H4S           -16.1948611277      -12.3427193990      -13.7776611395  MEMB      117             0.0000000000
     13549       117  OSM       C5S           -17.5137415940      -10.7425797180      -13.4431206281  MEMB      117             0.0000000000
     13550       117  OSM       H5S           -18.0153608188       -9.8583386065      -13.8688442120  MEMB      117             0.0000000000
     13551       117  OSM       C6S           -17.6286865912      -10.8292882600      -11.9211592702  MEMB      117             0.0000000000
     13552       117  OSM       H6S           -18.5646442279      -11.3752380521      -11.6771305361  MEMB      117             0.0000000000
     13553       117  OSM       H6T           -17.7782104463       -9.8315477184      -11.4432001508  MEMB      117             0.0000000000
     13554       117  OSM       C7S           -16.5194426129      -11.6248163980      -11.1850708722  MEMB      117             0.0000000000
     13555       117  OSM       H7S           -15.5284267089      -11.2434316333      -11.5082757009  MEMB      117             0.0000000000
     13556       117  OSM       H7T           -16.6177184068      -12.6755407493      -11.5284780451  MEMB      117             0.0000000000
     13557       117  OSM       C8S           -16.6412943343      -11.6547552384       -9.6358229472  MEMB      117             0.0000000000
     13558       117  OSM       H8S           -17.7260848597      -11.6950990592       -9.3937016906  MEMB      117             0.0000000000
     13559       117  OSM       H8T           -16.2334095579      -10.7504799994       -9.1708335314  MEMB      117             0.0000000000
     13560       117  OSM       C9S           -15.7384137427      -12.6637172949       -8.9019509098  MEMB      117             0.0000000000
     13561       117  OSM       H9S           -14.6865588342      -12.7066871836       -9.2265772073  MEMB      117             0.0000000000
     13562       117  OSM       H9T           -16.0505088184      -13.5939639077       -9.1423113421  MEMB      117             0.0000000000
     13563       117  OSM       C10S          -16.0241227599      -13.1434277305       -7.4850943748  MEMB      117             0.0000000000
     13564       117  OSM       H10S          -15.4817867621      -14.1248996750       -7.3505094532  MEMB      117             0.0000000000
     13565       117  OSM       H10T          -17.1054767094      -13.3371019187       -7.2975014449  MEMB      117             0.0000000000
     13566       117  OSM       C11S          -15.5355949355      -12.1144871632       -6.5423727154  MEMB      117             0.0000000000
     13567       117  OSM       H11S          -15.6555317825      -12.5350211132       -5.5237226622  MEMB      117             0.0000000000
     13568       117  OSM       H11T          -16.2114902365      -11.2349155101       -6.6499038262  MEMB      117             0.0000000000
     13569       117  OSM       C12S          -14.0769234819      -11.7242342330       -6.7975586516  MEMB      117             0.0000000000
     13570       117  OSM       H12S          -13.9573937111      -11.1478189080       -7.7382691792  MEMB      117             0.0000000000
     13571       117  OSM       H12T          -13.4838649367      -12.6626918309       -6.9219918566  MEMB      117             0.0000000000
     13572       117  OSM       C13S          -13.6373096829      -10.9281902949       -5.5655488983  MEMB      117             0.0000000000
     13573       117  OSM       H13S          -13.2036720075      -11.6552533716       -4.8534193409  MEMB      117             0.0000000000
     13574       117  OSM       H13T          -14.5802575464      -10.5078052813       -5.1390822900  MEMB      117             0.0000000000
     13575       117  OSM       C14S          -12.7306549376       -9.6995373713       -5.6818151162  MEMB      117             0.0000000000
     13576       117  OSM       H14S          -13.1297924106       -9.0684592282       -6.5029474941  MEMB      117             0.0000000000
     13577       117  OSM       H14T          -11.6695120513       -9.8146676975       -5.9452261119  MEMB      117             0.0000000000
     13578       117  OSM       C15S          -12.6748252282       -8.9481481763       -4.3437629629  MEMB      117             0.0000000000
     13579       117  OSM       H15S          -13.6876007678       -8.5992996563       -4.1023070281  MEMB      117             0.0000000000
     13580       117  OSM       H15T          -12.0106631336       -8.0738905442       -4.3398428367  MEMB      117             0.0000000000
     13581       117  OSM       C16S          -11.9332813535       -9.5582785508       -3.1906228486  MEMB      117             0.0000000000
     13582       117  OSM       H16S          -12.3902843348      -10.5433020883       -2.9936495002  MEMB      117             0.0000000000
     13583       117  OSM       H16T          -12.1191393483       -8.8745796394       -2.3278488874  MEMB      117             0.0000000000
     13584       117  OSM       C17S          -10.4260578996       -9.6049592958       -3.4671933067  MEMB      117             0.0000000000
     13585       117  OSM       H17S           -9.9464924184       -8.6978111639       -3.8673698984  MEMB      117             0.0000000000
     13586       117  OSM       H17T          -10.2969155166      -10.4015260635       -4.2373406919  MEMB      117             0.0000000000
     13587       117  OSM       C18S           -9.6495237142       -9.8913414221       -2.2195364416  MEMB      117             0.0000000000
     13588       117  OSM       H18S          -10.1526265551      -10.8283493942       -1.9742382747  MEMB      117             0.0000000000
     13589       117  OSM       H18T           -9.7937622139       -9.3572890830       -1.2773735328  MEMB      117             0.0000000000
     13590       117  OSM       H18U           -8.5528097504      -10.0036724487       -2.4351896275  MEMB      117             0.0000000000
     13591       117  OSM       C1F           -14.0912326465       -8.9749722838      -15.6863390910  MEMB      117             0.0000000000
     13592       117  OSM       OF            -14.4724237589       -8.0972863570      -16.4492840138  MEMB      117             0.0000000000
     13593       117  OSM       C2F           -12.9316080259       -9.0381107782      -14.7530713599  MEMB      117             0.0000000000
     13594       117  OSM       H2F           -12.1321191515       -9.6984673136      -15.1017788585  MEMB      117             0.0000000000
     13595       117  OSM       H2G           -13.3841223615       -9.4383182475      -13.8210415953  MEMB      117             0.0000000000
     13596       117  OSM       C3F           -12.3253837346       -7.7488199519      -14.4220273735  MEMB      117             0.0000000000
     13597       117  OSM       H3F           -13.1738311286       -7.2314264820      -13.8893293832  MEMB      117             0.0000000000
     13598       117  OSM       H3G           -11.7705408637       -7.2534319532      -15.2612219733  MEMB      117             0.0000000000
     13599       117  OSM       C4F           -11.3839447997       -7.6066146911      -13.4459327842  MEMB      117             0.0000000000
     13600       117  OSM       H4F           -11.1654320733       -6.5270393603      -13.2451333896  MEMB      117             0.0000000000
     13601       117  OSM       H4G           -10.5354164192       -8.1191862412      -13.9853213858  MEMB      117             0.0000000000
     13602       117  OSM       C5F           -12.0873770352       -8.2730904554      -12.3306945115  MEMB      117             0.0000000000
     13603       117  OSM       H5F           -11.6660234210       -7.4351919734      -11.7069132808  MEMB      117             0.0000000000
     13604       117  OSM       H5G           -11.7785068638       -9.3437516355      -12.3719235145  MEMB      117             0.0000000000
     13605       117  OSM       C6F           -13.2726597949       -8.0620469210      -11.4725329446  MEMB      117             0.0000000000
     13606       117  OSM       H6F           -13.8973084857       -8.7756823943      -12.0036781138  MEMB      117             0.0000000000
     13607       117  OSM       H6G           -13.4959318771       -6.9780000038      -11.5535753740  MEMB      117             0.0000000000
     13608       117  OSM       C7F           -13.2723537412       -8.6346914702      -10.0366797385  MEMB      117             0.0000000000
     13609       117  OSM       H7F           -12.9259073129       -8.0373713494       -9.2031141950  MEMB      117             0.0000000000
     13610       117  OSM       H7G           -12.6246069638       -9.5277558090       -9.8641362094  MEMB      117             0.0000000000
     13611       117  OSM       C8F           -14.5575513375       -8.4702417738       -9.3137232323  MEMB      117             0.0000000000
     13612       117  OSM       H8F           -14.3789097479       -8.6791322809       -8.2277991029  MEMB      117             0.0000000000
     13613       117  OSM       H8G           -15.0862525044       -9.2843812338       -9.7788076112  MEMB      117             0.0000000000
     13614       117  OSM       C9F           -15.3109011091       -7.1941213360       -9.5624481555  MEMB      117             0.0000000000
     13615       117  OSM       H9F           -15.7192318231       -7.0795284383      -10.5677600287  MEMB      117             0.0000000000
     13616       117  OSM       C10F          -15.5951299275       -6.2453899686       -8.6837310675  MEMB      117             0.0000000000
     13617       117  OSM       H10F          -16.1849093185       -5.3894510856       -8.9862106474  MEMB      117             0.0000000000
     13618       117  OSM       C11F          -15.2299961884       -6.2154619086       -7.2654369092  MEMB      117             0.0000000000
     13619       117  OSM       H11F          -14.6658070469       -5.2678330502       -7.2574720270  MEMB      117             0.0000000000
     13620       117  OSM       H11G          -14.5353586104       -7.0417148485       -7.0096899042  MEMB      117             0.0000000000
     13621       117  OSM       C12F          -16.3720058539       -6.2160228813       -6.2288533277  MEMB      117             0.0000000000
     13622       117  OSM       H12F          -17.0641883726       -5.3783054554       -6.4429036375  MEMB      117             0.0000000000
     13623       117  OSM       H12G          -15.9443784813       -6.0361732830       -5.2113853716  MEMB      117             0.0000000000
     13624       117  OSM       C13F          -17.1221626433       -7.5558762759       -6.1738867090  MEMB      117             0.0000000000
     13625       117  OSM       H13F          -16.3652223997       -8.3511539212       -5.9695186763  MEMB      117             0.0000000000
     13626       117  OSM       H13G          -17.6658772791       -7.7658570610       -7.1204005601  MEMB      117             0.0000000000
     13627       117  OSM       C14F          -18.1516565902       -7.6680629505       -5.0543046474  MEMB      117             0.0000000000
     13628       117  OSM       H14F          -19.1381729794       -7.3051733384       -5.4216869934  MEMB      117             0.0000000000
     13629       117  OSM       H14G          -17.7956554317       -7.0136247772       -4.2285497587  MEMB      117             0.0000000000
     13630       117  OSM       C15F          -18.3223805020       -9.1348971898       -4.6022021293  MEMB      117             0.0000000000
     13631       117  OSM       H15F          -18.2653919798       -9.7806587363       -5.4932929261  MEMB      117             0.0000000000
     13632       117  OSM       H15G          -19.2938746858       -9.2202499612       -4.0600229501  MEMB      117             0.0000000000
     13633       117  OSM       C16F          -17.2751391725       -9.5484974750       -3.5849384738  MEMB      117             0.0000000000
     13634       117  OSM       H16F          -17.6972828629       -8.8034260879       -2.8758815673  MEMB      117             0.0000000000
     13635       117  OSM       H16G          -16.2276123477       -9.3725761908       -3.9345294805  MEMB      117             0.0000000000
     13636       117  OSM       C17F          -17.4236038242      -10.7268126591       -2.6339511112  MEMB      117             0.0000000000
     13637       117  OSM       H17F          -17.5919460627      -11.5925641729       -3.2897726350  MEMB      117             0.0000000000
     13638       117  OSM       H17G          -18.3147890529      -10.5333509206       -1.9874430931  MEMB      117             0.0000000000
     13639       117  OSM       C18F          -16.2416725121      -11.0390324524       -1.6993982878  MEMB      117             0.0000000000
     13640       117  OSM       H18F          -15.9972477261      -10.2121864317       -1.0030867285  MEMB      117             0.0000000000
     13641       117  OSM       H18G          -15.3213960185      -11.2536563677       -2.2835685075  MEMB      117             0.0000000000
     13642       117  OSM       H18H          -16.5185066219      -11.9184188480       -1.0809184654  MEMB      117             0.0000000000
     13643       118  OSM       N             -16.8271304997       12.1383846950      -22.3898490551  MEMB      118             0.0000000000
     13644       118  OSM       C15           -16.5182418941       11.6910464245      -23.7605130396  MEMB      118             0.0000000000
     13645       118  OSM       H15A          -17.0959291147       12.2824533417      -24.4756346466  MEMB      118             0.0000000000
     13646       118  OSM       H15B          -16.8493901045       10.6752487593      -23.9353328853  MEMB      118             0.0000000000
     13647       118  OSM       H15C          -15.4601099092       11.8124124779      -23.9217931187  MEMB      118             0.0000000000
     13648       118  OSM       C14           -16.3028514045       13.5191522333      -22.1988907308  MEMB      118             0.0000000000
     13649       118  OSM       H14A          -16.4784789252       14.1456157368      -23.0663379873  MEMB      118             0.0000000000
     13650       118  OSM       H14B          -15.2340028779       13.4234507685      -22.0157469493  MEMB      118             0.0000000000
     13651       118  OSM       H14C          -16.7990366476       13.9641019262      -21.3438234453  MEMB      118             0.0000000000
     13652       118  OSM       C13           -18.2491991047       12.1747470966      -22.3132815411  MEMB      118             0.0000000000
     13653       118  OSM       H13A          -18.7445588002       12.9295091923      -22.9318712846  MEMB      118             0.0000000000
     13654       118  OSM       H13B          -18.6754497002       12.4008103982      -21.3407039996  MEMB      118             0.0000000000
     13655       118  OSM       H13C          -18.7564425784       11.2538557259      -22.6106884709  MEMB      118             0.0000000000
     13656       118  OSM       C12           -16.4502419455       11.1727145246      -21.2893523056  MEMB      118             0.0000000000
     13657       118  OSM       H12A          -17.0381595397       10.2699779539      -21.4276402800  MEMB      118             0.0000000000
     13658       118  OSM       H12B          -16.7828048080       11.5626653588      -20.3238998218  MEMB      118             0.0000000000
     13659       118  OSM       C11           -15.0023290831       10.7091102581      -21.1490972147  MEMB      118             0.0000000000
     13660       118  OSM       H11A          -14.7088845133       10.1295198358      -22.0491427693  MEMB      118             0.0000000000
     13661       118  OSM       H11B          -15.0298348128        9.9966169650      -20.2879138938  MEMB      118             0.0000000000
     13662       118  OSM       P             -13.5122914730       12.1007432394      -19.5048413035  MEMB      118             0.0000000000
     13663       118  OSM       O13           -12.6512028914       10.9865683859      -19.0460798035  MEMB      118             0.0000000000
     13664       118  OSM       O14           -12.9664059474       13.4781368968      -19.5693609394  MEMB      118             0.0000000000
     13665       118  OSM       O11           -14.8522389540       12.1037367695      -18.6541117737  MEMB      118             0.0000000000
     13666       118  OSM       O12           -14.0993689715       11.7896759108      -20.9503229606  MEMB      118             0.0000000000
     13667       118  OSM       C1S           -15.3939296533       13.2284020064      -17.9765633572  MEMB      118             0.0000000000
     13668       118  OSM       H1S           -16.1945749147       13.6432658701      -18.6304685635  MEMB      118             0.0000000000
     13669       118  OSM       H1T           -14.6474347435       14.0301050652      -17.7885160672  MEMB      118             0.0000000000
     13670       118  OSM       NF            -14.8806989617       12.7220584829      -15.5712536334  MEMB      118             0.0000000000
     13671       118  OSM       HNF           -14.5980376036       11.7872944243      -15.4511918842  MEMB      118             0.0000000000
     13672       118  OSM       C2S           -15.9443052924       12.8471150923      -16.5535769520  MEMB      118             0.0000000000
     13673       118  OSM       H2S           -16.5948222933       13.6599403595      -16.2653473203  MEMB      118             0.0000000000
     13674       118  OSM       C3S           -16.7640441483       11.5394045753      -16.5845242471  MEMB      118             0.0000000000
     13675       118  OSM       H3S           -16.0500167918       10.7061464169      -16.6209419832  MEMB      118             0.0000000000
     13676       118  OSM       O3            -17.6121731464       11.4415557987      -17.7120079330  MEMB      118             0.0000000000
     13677       118  OSM       HO3           -17.6062773218       12.3109849815      -18.1170490537  MEMB      118             0.0000000000
     13678       118  OSM       C4S           -17.5030034046       11.4066255254      -15.2546102507  MEMB      118             0.0000000000
     13679       118  OSM       H4S           -17.1231082922       10.6115734398      -14.6175335831  MEMB      118             0.0000000000
     13680       118  OSM       C5S           -18.5933900816       12.0356779550      -14.8161264931  MEMB      118             0.0000000000
     13681       118  OSM       H5S           -19.0933742943       12.6620383695      -15.5180247192  MEMB      118             0.0000000000
     13682       118  OSM       C6S           -19.2957391586       11.8820770277      -13.5135056562  MEMB      118             0.0000000000
     13683       118  OSM       H6S           -20.1235942176       11.2139937332      -13.7947701808  MEMB      118             0.0000000000
     13684       118  OSM       H6T           -19.8015978637       12.8180766862      -13.1951454952  MEMB      118             0.0000000000
     13685       118  OSM       C7S           -18.4880870798       11.2949889983      -12.3258361762  MEMB      118             0.0000000000
     13686       118  OSM       H7S           -18.1771211700       10.2624662259      -12.6023312784  MEMB      118             0.0000000000
     13687       118  OSM       H7T           -19.1070126980       11.2149042461      -11.4028210445  MEMB      118             0.0000000000
     13688       118  OSM       C8S           -17.2947016923       12.1377880287      -11.9121422214  MEMB      118             0.0000000000
     13689       118  OSM       H8S           -17.6298205262       13.1656619754      -11.6757905349  MEMB      118             0.0000000000
     13690       118  OSM       H8T           -16.5974394611       12.1392944522      -12.7770810331  MEMB      118             0.0000000000
     13691       118  OSM       C9S           -16.5734592124       11.6137760473      -10.6735365050  MEMB      118             0.0000000000
     13692       118  OSM       H9S           -16.1306123430       10.6647272184      -11.0387152799  MEMB      118             0.0000000000
     13693       118  OSM       H9T           -17.3073037680       11.3988633744       -9.8639081382  MEMB      118             0.0000000000
     13694       118  OSM       C10S          -15.4922362369       12.5871226308      -10.1471952380  MEMB      118             0.0000000000
     13695       118  OSM       H10S          -14.8525307464       12.8769306546      -11.0056997669  MEMB      118             0.0000000000
     13696       118  OSM       H10T          -14.8630242559       12.0659524966       -9.3891998464  MEMB      118             0.0000000000
     13697       118  OSM       C11S          -16.0521643365       13.8659967778       -9.4918243302  MEMB      118             0.0000000000
     13698       118  OSM       H11S          -16.5672484415       13.5581210540       -8.5603503450  MEMB      118             0.0000000000
     13699       118  OSM       H11T          -16.8402193753       14.3134689215      -10.1359862659  MEMB      118             0.0000000000
     13700       118  OSM       C12S          -15.0366637280       14.9669591428       -9.1204238873  MEMB      118             0.0000000000
     13701       118  OSM       H12S          -15.5634373975       15.7135788205       -8.4861783109  MEMB      118             0.0000000000
     13702       118  OSM       H12T          -14.6726631030       15.5051104534      -10.0170091670  MEMB      118             0.0000000000
     13703       118  OSM       C13S          -13.7413481041       14.5396564575       -8.4298430442  MEMB      118             0.0000000000
     13704       118  OSM       H13S          -13.1873088882       15.4276984786       -8.0646114203  MEMB      118             0.0000000000
     13705       118  OSM       H13T          -13.0875517296       14.0424800069       -9.1700305176  MEMB      118             0.0000000000
     13706       118  OSM       C14S          -13.8565547636       13.7097439501       -7.1885750135  MEMB      118             0.0000000000
     13707       118  OSM       H14S          -12.8097390242       13.6158227095       -6.7898151709  MEMB      118             0.0000000000
     13708       118  OSM       H14T          -14.2289141781       12.6789917363       -7.2986260115  MEMB      118             0.0000000000
     13709       118  OSM       C15S          -14.7502331324       14.2575089538       -6.1269511352  MEMB      118             0.0000000000
     13710       118  OSM       H15S          -15.8223664964       14.0351721269       -6.2743219367  MEMB      118             0.0000000000
     13711       118  OSM       H15T          -14.8467185426       15.3742643749       -6.0670819038  MEMB      118             0.0000000000
     13712       118  OSM       C16S          -14.1030169580       13.4762952065       -4.9426558463  MEMB      118             0.0000000000
     13713       118  OSM       H16S          -13.2591118019       13.6741925356       -4.2991373858  MEMB      118             0.0000000000
     13714       118  OSM       H16T          -13.9273535301       12.4188991502       -5.0299512135  MEMB      118             0.0000000000
     13715       118  OSM       C17S          -14.6522633762       13.7940763150       -3.7646520336  MEMB      118             0.0000000000
     13716       118  OSM       H17S          -15.4811549277       13.5668400768       -4.3627583583  MEMB      118             0.0000000000
     13717       118  OSM       H17T          -15.2878314757       14.6983974006       -3.6319653619  MEMB      118             0.0000000000
     13718       118  OSM       C18S          -13.9462450651       13.1028425415       -2.4591223116  MEMB      118             0.0000000000
     13719       118  OSM       H18S          -14.5601808554       13.4796626694       -1.7148408524  MEMB      118             0.0000000000
     13720       118  OSM       H18T          -13.4978174907       13.6913507109       -1.6069410599  MEMB      118             0.0000000000
     13721       118  OSM       H18U          -14.2808280309       12.0822952879       -2.2553677427  MEMB      118             0.0000000000
     13722       118  OSM       C1F           -14.1382797946       13.6827508323      -15.0183782102  MEMB      118             0.0000000000
     13723       118  OSM       OF            -14.5289765179       14.8251528278      -14.9450392518  MEMB      118             0.0000000000
     13724       118  OSM       C2F           -12.7906814394       13.3040800742      -14.4755309853  MEMB      118             0.0000000000
     13725       118  OSM       H2F           -12.1354434273       14.2069394748      -14.4510144382  MEMB      118             0.0000000000
     13726       118  OSM       H2G           -12.3490589985       12.5357515044      -15.1440707235  MEMB      118             0.0000000000
     13727       118  OSM       C3F           -12.8666473788       12.7426390917      -13.0342135103  MEMB      118             0.0000000000
     13728       118  OSM       H3F           -13.7086608896       12.0160253593      -13.0025165011  MEMB      118             0.0000000000
     13729       118  OSM       H3G           -13.0786097554       13.5897699429      -12.3429073601  MEMB      118             0.0000000000
     13730       118  OSM       C4F           -11.5220785699       12.1291620463      -12.5824476499  MEMB      118             0.0000000000
     13731       118  OSM       H4F           -10.8025151567       12.9828084312      -12.5651042913  MEMB      118             0.0000000000
     13732       118  OSM       H4G           -11.1605605453       11.4391572738      -13.3771698085  MEMB      118             0.0000000000
     13733       118  OSM       C5F           -11.4642528234       11.4162325017      -11.1948364360  MEMB      118             0.0000000000
     13734       118  OSM       H5F           -11.5811473665       12.1533478528      -10.3737634186  MEMB      118             0.0000000000
     13735       118  OSM       H5G           -10.4329939712       10.9964424864      -11.1073908302  MEMB      118             0.0000000000
     13736       118  OSM       C6F           -12.4612377372       10.2494998303      -10.9640446201  MEMB      118             0.0000000000
     13737       118  OSM       H6F           -12.1834507938        9.4632170133      -11.6977113058  MEMB      118             0.0000000000
     13738       118  OSM       H6G           -13.4913186517       10.5646041237      -11.2276354490  MEMB      118             0.0000000000
     13739       118  OSM       C7F           -12.4502013323        9.5665270503       -9.5604919168  MEMB      118             0.0000000000
     13740       118  OSM       H7F           -12.6819389775       10.2490393770       -8.7095738854  MEMB      118             0.0000000000
     13741       118  OSM       H7G           -11.4251990297        9.1867444426       -9.3664139023  MEMB      118             0.0000000000
     13742       118  OSM       C8F           -13.4006633100        8.3503152595       -9.4778503926  MEMB      118             0.0000000000
     13743       118  OSM       H8F           -13.1039065936        7.6793930393       -8.6436913427  MEMB      118             0.0000000000
     13744       118  OSM       H8G           -13.2877130330        7.7317253045      -10.3964459827  MEMB      118             0.0000000000
     13745       118  OSM       C9F           -14.8251506423        8.8122788900       -9.3307742275  MEMB      118             0.0000000000
     13746       118  OSM       H9F           -15.2624777145        9.1863345908      -10.2538751760  MEMB      118             0.0000000000
     13747       118  OSM       C10F          -15.5723656042        8.9226556838       -8.2242360781  MEMB      118             0.0000000000
     13748       118  OSM       H10F          -16.6214274001        9.2367608305       -8.3242195136  MEMB      118             0.0000000000
     13749       118  OSM       C11F          -15.1281192175        8.5973819377       -6.8386511519  MEMB      118             0.0000000000
     13750       118  OSM       H11F          -15.0131763173        9.5212261286       -6.2463673351  MEMB      118             0.0000000000
     13751       118  OSM       H11G          -14.1311146477        8.1130933432       -6.8639956723  MEMB      118             0.0000000000
     13752       118  OSM       C12F          -16.0208983448        7.6348647256       -6.0829635811  MEMB      118             0.0000000000
     13753       118  OSM       H12F          -15.6370389008        7.5130884410       -5.0449505362  MEMB      118             0.0000000000
     13754       118  OSM       H12G          -15.9288359144        6.6967180313       -6.6005513330  MEMB      118             0.0000000000
     13755       118  OSM       C13F          -17.5286203955        7.7846248696       -6.1179552577  MEMB      118             0.0000000000
     13756       118  OSM       H13F          -17.8515477963        6.9835094783       -5.4161466519  MEMB      118             0.0000000000
     13757       118  OSM       H13G          -17.9810468590        7.4745909373       -7.0364817625  MEMB      118             0.0000000000
     13758       118  OSM       C14F          -18.0583803947        9.1944474133       -5.8959743976  MEMB      118             0.0000000000
     13759       118  OSM       H14F          -19.0804965144        9.2125403301       -5.5560076025  MEMB      118             0.0000000000
     13760       118  OSM       H14G          -18.1119008780        9.9502329762       -6.6596718568  MEMB      118             0.0000000000
     13761       118  OSM       C15F          -17.4159993162        9.8171493221       -4.7652942394  MEMB      118             0.0000000000
     13762       118  OSM       H15F          -16.3605166369       10.0968678757       -4.7425667724  MEMB      118             0.0000000000
     13763       118  OSM       H15G          -17.3141396796        8.7946788488       -4.2690036361  MEMB      118             0.0000000000
     13764       118  OSM       C16F          -18.3974316099       10.9937812640       -4.1441087891  MEMB      118             0.0000000000
     13765       118  OSM       H16F          -19.4445064789       11.0048410087       -4.4186018494  MEMB      118             0.0000000000
     13766       118  OSM       H16G          -17.9948805039       11.5690702742       -5.0249583967  MEMB      118             0.0000000000
     13767       118  OSM       C17F          -18.4530607980       11.6304075565       -2.3495766293  MEMB      118             0.0000000000
     13768       118  OSM       H17F          -17.3433048821       11.5730505320       -2.1809739787  MEMB      118             0.0000000000
     13769       118  OSM       H17G          -18.9669604229       11.1523691867       -1.5517550633  MEMB      118             0.0000000000
     13770       118  OSM       C18F          -19.0019961721       12.8310586532       -1.4125802139  MEMB      118             0.0000000000
     13771       118  OSM       H18F          -18.7244332165       13.8778622127       -1.5877604952  MEMB      118             0.0000000000
     13772       118  OSM       H18G          -18.5448550517       12.8804173228       -0.3951217343  MEMB      118             0.0000000000
     13773       118  OSM       H18H          -20.0133393173       13.0247357507       -1.6365253406  MEMB      118             0.0000000000
     13774       119  SAPS      N              -5.3334657975      -17.4923141665      -20.7528939350  MEMB      119             0.0000000000
     13775       119  SAPS      HN1            -4.7505192439      -18.0110128111      -21.4150009611  MEMB      119             0.0000000000
     13776       119  SAPS      HN2            -6.1470111536      -17.0265015792      -21.2020469958  MEMB      119             0.0000000000
     13777       119  SAPS      HN3            -4.8479736399      -16.7882016720      -20.1669157482  MEMB      119             0.0000000000
     13778       119  SAPS      C12            -5.8544010835      -18.4916030910      -19.7426095177  MEMB      119             0.0000000000
     13779       119  SAPS      H12A           -5.0368929109      -18.6762949546      -19.0713916120  MEMB      119             0.0000000000
     13780       119  SAPS      C13            -6.9754716521      -17.9238549782      -18.9130369343  MEMB      119             0.0000000000
     13781       119  SAPS      O13A           -7.1254896793      -16.7218025302      -19.1626846720  MEMB      119             0.0000000000
     13782       119  SAPS      O13B           -7.5415529497      -18.5271828626      -17.9750386143  MEMB      119             0.0000000000
     13783       119  SAPS      C11            -6.3956835959      -19.7354407882      -20.4586513548  MEMB      119             0.0000000000
     13784       119  SAPS      H11A           -7.2628963342      -19.4792597573      -21.0970851665  MEMB      119             0.0000000000
     13785       119  SAPS      H11B           -6.7915072454      -20.4618694495      -19.7021250727  MEMB      119             0.0000000000
     13786       119  SAPS      P              -4.2346850823      -21.1091094953      -20.6892831834  MEMB      119             0.0000000000
     13787       119  SAPS      O13            -3.7626534658      -21.9899738312      -21.7632540011  MEMB      119             0.0000000000
     13788       119  SAPS      O14            -3.2969890398      -20.1591498235      -20.0529361097  MEMB      119             0.0000000000
     13789       119  SAPS      O12            -5.3895508198      -20.2607613584      -21.3165719108  MEMB      119             0.0000000000
     13790       119  SAPS      O11            -5.0512657459      -21.8804916787      -19.5801249251  MEMB      119             0.0000000000
     13791       119  SAPS      C1             -5.8804558905      -23.0112865375      -19.8338719907  MEMB      119             0.0000000000
     13792       119  SAPS      HA             -6.6598384063      -22.7643388654      -20.5797304721  MEMB      119             0.0000000000
     13793       119  SAPS      HB             -5.2803327355      -23.8653292548      -20.2169124715  MEMB      119             0.0000000000
     13794       119  SAPS      C2             -6.5895810845      -23.5488681468      -18.5711554143  MEMB      119             0.0000000000
     13795       119  SAPS      HS             -7.0605335114      -24.4945989339      -18.9532866759  MEMB      119             0.0000000000
     13796       119  SAPS      O21            -7.4435343133      -22.5311945776      -18.0073834511  MEMB      119             0.0000000000
     13797       119  SAPS      C21            -8.1241695412      -22.8993892648      -16.9435607821  MEMB      119             0.0000000000
     13798       119  SAPS      O22            -8.2432115902      -24.1025654286      -16.6638564054  MEMB      119             0.0000000000
     13799       119  SAPS      C22            -9.1515593076      -21.7514371194      -16.8596866580  MEMB      119             0.0000000000
     13800       119  SAPS      H2R            -8.7429875862      -20.7863793231      -17.1538923410  MEMB      119             0.0000000000
     13801       119  SAPS      H2S           -10.1641756182      -21.8865673045      -17.3183780792  MEMB      119             0.0000000000
     13802       119  SAPS      C3             -5.7988085268      -24.0517732881      -17.4660530863  MEMB      119             0.0000000000
     13803       119  SAPS      HX             -5.2943649418      -24.9450247409      -17.8888349451  MEMB      119             0.0000000000
     13804       119  SAPS      HY             -6.2519927225      -24.5473036934      -16.5899712502  MEMB      119             0.0000000000
     13805       119  SAPS      O31            -5.0686948225      -22.8762855460      -17.1014071752  MEMB      119             0.0000000000
     13806       119  SAPS      C31            -5.1334815016      -22.4339845293      -15.8796135383  MEMB      119             0.0000000000
     13807       119  SAPS      O32            -5.9019459907      -22.8356975390      -15.0253684248  MEMB      119             0.0000000000
     13808       119  SAPS      C32            -4.0288638569      -21.4294687637      -15.6880667211  MEMB      119             0.0000000000
     13809       119  SAPS      H2X            -3.8492388185      -20.9355714079      -16.6691399169  MEMB      119             0.0000000000
     13810       119  SAPS      H2Y            -3.0762576793      -21.8675465148      -15.3230017045  MEMB      119             0.0000000000
     13811       119  SAPS      C23            -9.3250112890      -21.3800382812      -15.4628925624  MEMB      119             0.0000000000
     13812       119  SAPS      H3R            -8.6315178236      -21.9170873107      -14.7670651768  MEMB      119             0.0000000000
     13813       119  SAPS      H3S           -10.3422831901      -21.7858179568      -15.4621807714  MEMB      119             0.0000000000
     13814       119  SAPS      C24           -10.1089939181      -20.2377602519      -15.0768215958  MEMB      119             0.0000000000
     13815       119  SAPS      H4R           -10.2370906378      -20.1695324067      -14.0280679485  MEMB      119             0.0000000000
     13816       119  SAPS      H4S           -11.2134237355      -20.1887400244      -15.4080631493  MEMB      119             0.0000000000
     13817       119  SAPS      C25            -9.2182250251      -19.2009452711      -14.8481399827  MEMB      119             0.0000000000
     13818       119  SAPS      H5R            -9.5343888313      -18.6159280087      -15.7022929629  MEMB      119             0.0000000000
     13819       119  SAPS      C26            -8.2435111923      -18.9662242471      -13.8990622837  MEMB      119             0.0000000000
     13820       119  SAPS      H6R            -7.8462756269      -18.0066634837      -14.1384115005  MEMB      119             0.0000000000
     13821       119  SAPS      C27            -7.5863071049      -19.6344622209      -12.6206327358  MEMB      119             0.0000000000
     13822       119  SAPS      H7R            -6.5492056062      -19.8831183434      -12.7779633977  MEMB      119             0.0000000000
     13823       119  SAPS      H7S            -7.8762866451      -20.7276818881      -12.5659563963  MEMB      119             0.0000000000
     13824       119  SAPS      C28            -7.7184273574      -18.8701417670      -11.2121069396  MEMB      119             0.0000000000
     13825       119  SAPS      H8R            -7.6390525569      -17.8081803105      -11.4493559536  MEMB      119             0.0000000000
     13826       119  SAPS      C29            -8.3283111689      -19.0747834532       -9.9303504045  MEMB      119             0.0000000000
     13827       119  SAPS      H9R            -8.7303512322      -18.1901248775       -9.4249956187  MEMB      119             0.0000000000
     13828       119  SAPS      C210           -9.1818581417      -20.1315489064       -9.2240696480  MEMB      119             0.0000000000
     13829       119  SAPS      H10R           -8.9269004781      -20.8610408294       -9.9926179100  MEMB      119             0.0000000000
     13830       119  SAPS      H10S          -10.3288137814      -19.9938777062       -9.2584633214  MEMB      119             0.0000000000
     13831       119  SAPS      C211           -8.8286695440      -21.3560962603       -8.5726088620  MEMB      119             0.0000000000
     13832       119  SAPS      H11R           -7.8068082950      -21.6037340477       -8.7793743429  MEMB      119             0.0000000000
     13833       119  SAPS      C212           -9.5555261379      -22.2403636025       -7.9536023426  MEMB      119             0.0000000000
     13834       119  SAPS      H12R           -8.9900149518      -22.8534003592       -7.2729303663  MEMB      119             0.0000000000
     13835       119  SAPS      C213          -11.0026216798      -22.2351813825       -7.6962420642  MEMB      119             0.0000000000
     13836       119  SAPS      H13R          -11.6623902484      -22.9070501934       -8.2267200966  MEMB      119             0.0000000000
     13837       119  SAPS      H13S          -11.3441314126      -21.2054920612       -7.6963317661  MEMB      119             0.0000000000
     13838       119  SAPS      C214          -11.1333784171      -22.9070554272       -6.4861028023  MEMB      119             0.0000000000
     13839       119  SAPS      H14R          -11.9912076804      -23.6623171653       -6.4563302654  MEMB      119             0.0000000000
     13840       119  SAPS      C215          -10.7439423883      -22.1369670335       -5.4432473708  MEMB      119             0.0000000000
     13841       119  SAPS      H15R          -11.2454380703      -22.1579743405       -4.5505167858  MEMB      119             0.0000000000
     13842       119  SAPS      C216          -10.2402760485      -20.8855619887       -4.9253686891  MEMB      119             0.0000000000
     13843       119  SAPS      H16R          -10.9138140298      -20.4694047365       -4.1114637434  MEMB      119             0.0000000000
     13844       119  SAPS      H16S          -10.2661423899      -20.1536128271       -5.6935775117  MEMB      119             0.0000000000
     13845       119  SAPS      C217           -9.3111433576      -21.0581618648       -3.8267187458  MEMB      119             0.0000000000
     13846       119  SAPS      H17R           -9.7245215824      -21.0765458698       -2.8218301084  MEMB      119             0.0000000000
     13847       119  SAPS      H17S           -9.0042896383      -20.0445731738       -3.5983703061  MEMB      119             0.0000000000
     13848       119  SAPS      C218           -8.2494885469      -21.9852175172       -4.3273226869  MEMB      119             0.0000000000
     13849       119  SAPS      H18R           -7.3938525162      -21.7460475064       -3.7123407936  MEMB      119             0.0000000000
     13850       119  SAPS      H18S           -8.1400581312      -21.6213833943       -5.3705328187  MEMB      119             0.0000000000
     13851       119  SAPS      C219           -8.3403233626      -23.4985148357       -4.4629219613  MEMB      119             0.0000000000
     13852       119  SAPS      H19R           -7.3346155883      -23.9339374857       -4.2569418273  MEMB      119             0.0000000000
     13853       119  SAPS      H19S           -8.8615405760      -23.9030451810       -5.3595674018  MEMB      119             0.0000000000
     13854       119  SAPS      C220           -9.0223388213      -24.2555517780       -3.4974044530  MEMB      119             0.0000000000
     13855       119  SAPS      H20R           -8.9912553510      -25.2501047188       -3.8252299016  MEMB      119             0.0000000000
     13856       119  SAPS      H20S          -10.0716853717      -24.1493103877       -3.3704293615  MEMB      119             0.0000000000
     13857       119  SAPS      H20T           -8.5406111835      -24.2774374353       -2.5541375855  MEMB      119             0.0000000000
     13858       119  SAPS      C33            -4.5309928275      -20.4839522810      -14.6371955450  MEMB      119             0.0000000000
     13859       119  SAPS      H3X            -4.5239317642      -20.9685387618      -13.6334631928  MEMB      119             0.0000000000
     13860       119  SAPS      H3Y            -5.5794951919      -20.1745342515      -14.8908945678  MEMB      119             0.0000000000
     13861       119  SAPS      C34            -3.6765871271      -19.2571388521      -14.6297469521  MEMB      119             0.0000000000
     13862       119  SAPS      H4X            -3.7137607198      -18.7936937870      -15.6491311174  MEMB      119             0.0000000000
     13863       119  SAPS      H4Y            -2.6016006996      -19.4674680044      -14.4321238427  MEMB      119             0.0000000000
     13864       119  SAPS      C35            -4.3748524072      -18.2845065633      -13.7155380099  MEMB      119             0.0000000000
     13865       119  SAPS      H5X            -5.4480978688      -18.4051175235      -13.6042956387  MEMB      119             0.0000000000
     13866       119  SAPS      H5Y            -4.4237853150      -17.3938075615      -14.3877380519  MEMB      119             0.0000000000
     13867       119  SAPS      C36            -3.7686735470      -18.1557815190      -12.3020247470  MEMB      119             0.0000000000
     13868       119  SAPS      H6X            -4.1691608211      -17.2161660671      -11.8400647115  MEMB      119             0.0000000000
     13869       119  SAPS      H6Y            -2.6485179915      -18.1576011264      -12.3432663686  MEMB      119             0.0000000000
     13870       119  SAPS      C37            -4.0059469254      -19.2079218970      -11.2931035481  MEMB      119             0.0000000000
     13871       119  SAPS      H7X            -3.6739556901      -20.1337141714      -11.7969537609  MEMB      119             0.0000000000
     13872       119  SAPS      H7Y            -5.0976617260      -19.1640853509      -11.1206011249  MEMB      119             0.0000000000
     13873       119  SAPS      C38            -3.1587536651      -18.9971789596      -10.0299663874  MEMB      119             0.0000000000
     13874       119  SAPS      H8X            -2.6642589011      -17.9957931612       -9.9735114068  MEMB      119             0.0000000000
     13875       119  SAPS      H8Y            -2.3506868656      -19.7583191282      -10.0426500653  MEMB      119             0.0000000000
     13876       119  SAPS      C39            -3.9785747874      -19.1739698557       -8.7646259863  MEMB      119             0.0000000000
     13877       119  SAPS      H9X            -3.2638798153      -19.3368227301       -7.9277699759  MEMB      119             0.0000000000
     13878       119  SAPS      H9Y            -4.6666551002      -20.0461418455       -8.8446851346  MEMB      119             0.0000000000
     13879       119  SAPS      C310           -4.8130712080      -17.9352150160       -8.4961030813  MEMB      119             0.0000000000
     13880       119  SAPS      H10X           -5.4886943331      -17.7685235995       -9.3668855390  MEMB      119             0.0000000000
     13881       119  SAPS      H10Y           -4.1381347692      -17.0559105272       -8.3959695144  MEMB      119             0.0000000000
     13882       119  SAPS      C311           -5.5762089994      -18.0408191462       -7.1863812446  MEMB      119             0.0000000000
     13883       119  SAPS      H11X           -4.8020270128      -18.0388553599       -6.3840627618  MEMB      119             0.0000000000
     13884       119  SAPS      H11Y           -6.1647922157      -18.9867584360       -7.1435310221  MEMB      119             0.0000000000
     13885       119  SAPS      C312           -6.5357053225      -16.8662994979       -7.0462839993  MEMB      119             0.0000000000
     13886       119  SAPS      H12X           -7.1499480772      -16.8650224884       -7.9760520154  MEMB      119             0.0000000000
     13887       119  SAPS      H12Y           -5.9723734707      -15.9104566206       -6.9704013551  MEMB      119             0.0000000000
     13888       119  SAPS      C313           -7.5287428966      -16.9893241430       -5.8978292326  MEMB      119             0.0000000000
     13889       119  SAPS      H13X           -8.0771654544      -17.9507445031       -6.0281651310  MEMB      119             0.0000000000
     13890       119  SAPS      H13Y           -8.2244413981      -16.1212441363       -5.9661653327  MEMB      119             0.0000000000
     13891       119  SAPS      C314           -6.9152384015      -16.8609488011       -4.5202519763  MEMB      119             0.0000000000
     13892       119  SAPS      H14X           -7.5822814891      -16.2149920538       -3.9009039980  MEMB      119             0.0000000000
     13893       119  SAPS      H14Y           -5.9126094876      -16.3810024757       -4.6054440458  MEMB      119             0.0000000000
     13894       119  SAPS      C315           -6.7472363900      -18.1809377936       -3.8273690173  MEMB      119             0.0000000000
     13895       119  SAPS      H15X           -6.1410132442      -18.8599238416       -4.4646070685  MEMB      119             0.0000000000
     13896       119  SAPS      H15Y           -7.7059948268      -18.7049935629       -3.6559300412  MEMB      119             0.0000000000
     13897       119  SAPS      C316           -6.0273556769      -17.9237515144       -2.5409541943  MEMB      119             0.0000000000
     13898       119  SAPS      H16X           -6.5389781089      -17.2081550725       -1.8518443429  MEMB      119             0.0000000000
     13899       119  SAPS      H16Y           -4.9634294174      -17.6574089796       -2.6262781255  MEMB      119             0.0000000000
     13900       119  SAPS      C317           -5.7713673499      -19.2085808146       -2.0003363793  MEMB      119             0.0000000000
     13901       119  SAPS      H17X           -6.8357967104      -19.5769346569       -1.8175270714  MEMB      119             0.0000000000
     13902       119  SAPS      H17Y           -5.1369263871      -18.9868375642       -1.1075984211  MEMB      119             0.0000000000
     13903       119  SAPS      C318           -4.8897043851      -20.1811070196       -2.7173485503  MEMB      119             0.0000000000
     13904       119  SAPS      H18X           -3.8784765278      -19.9988963194       -2.8360693964  MEMB      119             0.0000000000
     13905       119  SAPS      H18Y           -5.5036772667      -20.9530134430       -3.2466439817  MEMB      119             0.0000000000
     13906       119  SAPS      H18Z           -4.2970716586      -20.7840832162       -1.9804120170  MEMB      119             0.0000000000
     13907       120  CHL1      C3            -10.2228440841       17.6943646039      -17.3763956322  MEMB      120             0.0000000000
     13908       120  CHL1      H3            -10.4621156368       16.6044964675      -17.4573299677  MEMB      120             0.0000000000
     13909       120  CHL1      O3            -10.0515590090       18.3126097118      -18.6314533566  MEMB      120             0.0000000000
     13910       120  CHL1      H3'           -10.7610721239       17.9599561578      -19.1985198363  MEMB      120             0.0000000000
     13911       120  CHL1      C4            -11.3663452493       18.4281938399      -16.7147481798  MEMB      120             0.0000000000
     13912       120  CHL1      H4A           -11.2306187437       19.5284944639      -16.8002877324  MEMB      120             0.0000000000
     13913       120  CHL1      H4B           -12.2570413363       18.1951488626      -17.3409688720  MEMB      120             0.0000000000
     13914       120  CHL1      C5            -11.4604094270       18.0495710124      -15.2532398975  MEMB      120             0.0000000000
     13915       120  CHL1      C6            -12.5051714633       17.6040287100      -14.6347532510  MEMB      120             0.0000000000
     13916       120  CHL1      H6            -13.2898270326       17.4769026812      -15.1725628522  MEMB      120             0.0000000000
     13917       120  CHL1      C7            -12.9517206444       17.3132511155      -13.2818572461  MEMB      120             0.0000000000
     13918       120  CHL1      H7A           -14.0095612849       17.6372067191      -13.1104013901  MEMB      120             0.0000000000
     13919       120  CHL1      H7B           -12.8976793141       16.2142835571      -13.1820282520  MEMB      120             0.0000000000
     13920       120  CHL1      C8            -11.9875527708       18.1127598626      -12.4633155881  MEMB      120             0.0000000000
     13921       120  CHL1      H8            -12.2077164928       19.2000664695      -12.6126753141  MEMB      120             0.0000000000
     13922       120  CHL1      C14           -12.2457682647       17.7188619496      -11.0325682801  MEMB      120             0.0000000000
     13923       120  CHL1      H14           -12.1354905281       16.5991958595      -11.0597386126  MEMB      120             0.0000000000
     13924       120  CHL1      C15           -13.6513610757       17.9412245295      -10.4528585232  MEMB      120             0.0000000000
     13925       120  CHL1      H15A          -14.0392326834       18.9307643468      -10.7469035281  MEMB      120             0.0000000000
     13926       120  CHL1      H15B          -14.3468535016       17.1918222440      -10.8720362737  MEMB      120             0.0000000000
     13927       120  CHL1      C16           -13.4235693358       17.8968796702       -8.9333461357  MEMB      120             0.0000000000
     13928       120  CHL1      H16A          -13.8249919164       18.8152014380       -8.4682628935  MEMB      120             0.0000000000
     13929       120  CHL1      H16B          -13.9753748489       17.1170890187       -8.4074377623  MEMB      120             0.0000000000
     13930       120  CHL1      C17           -11.8772871234       17.7349034942       -8.7156158257  MEMB      120             0.0000000000
     13931       120  CHL1      H17           -11.6409097801       16.6472227995       -8.7492760675  MEMB      120             0.0000000000
     13932       120  CHL1      C13           -11.2604983675       18.2741559675      -10.0169329312  MEMB      120             0.0000000000
     13933       120  CHL1      C18           -11.2369518264       19.8202777379       -9.9591507708  MEMB      120             0.0000000000
     13934       120  CHL1      H18A          -11.3446925596       20.2756111676      -10.9585889256  MEMB      120             0.0000000000
     13935       120  CHL1      H18B          -12.0171034584       20.2555255049       -9.3094937182  MEMB      120             0.0000000000
     13936       120  CHL1      H18C          -10.2384154760       20.1109636360       -9.5698095708  MEMB      120             0.0000000000
     13937       120  CHL1      C12            -9.8904065756       17.7413006251      -10.4428377315  MEMB      120             0.0000000000
     13938       120  CHL1      H12A           -9.0967869286       18.1281133722       -9.7750596729  MEMB      120             0.0000000000
     13939       120  CHL1      H12B           -9.9158754946       16.6337983789      -10.4164309701  MEMB      120             0.0000000000
     13940       120  CHL1      C11            -9.5435400717       18.1906969781      -11.8661805526  MEMB      120             0.0000000000
     13941       120  CHL1      H11A           -9.4940262981       19.3053456601      -11.8311163331  MEMB      120             0.0000000000
     13942       120  CHL1      H11B           -8.5553005665       17.7635389451      -12.1308858023  MEMB      120             0.0000000000
     13943       120  CHL1      C9            -10.5587244519       17.7541006473      -12.9339067454  MEMB      120             0.0000000000
     13944       120  CHL1      H9            -10.5033017139       16.6474862073      -12.9720144087  MEMB      120             0.0000000000
     13945       120  CHL1      C10           -10.2822153753       18.1389248425      -14.4319951478  MEMB      120             0.0000000000
     13946       120  CHL1      C19            -9.9857947023       19.5478563294      -14.4312358357  MEMB      120             0.0000000000
     13947       120  CHL1      H19A           -9.0661595575       19.3747563281      -13.8544880449  MEMB      120             0.0000000000
     13948       120  CHL1      H19B           -9.6845509901       19.9926872300      -15.3830917477  MEMB      120             0.0000000000
     13949       120  CHL1      H19C          -10.6526889345       20.2306701443      -13.8870761618  MEMB      120             0.0000000000
     13950       120  CHL1      C1             -9.0617224005       17.4878027426      -15.1300815398  MEMB      120             0.0000000000
     13951       120  CHL1      H1A            -8.1193588926       17.8347105019      -14.6564657350  MEMB      120             0.0000000000
     13952       120  CHL1      H1B            -9.1354623079       16.3965297958      -15.0032434840  MEMB      120             0.0000000000
     13953       120  CHL1      C2             -8.9181252983       17.8704791196      -16.6215273584  MEMB      120             0.0000000000
     13954       120  CHL1      H2A            -8.1467373337       17.2420987746      -17.1127780476  MEMB      120             0.0000000000
     13955       120  CHL1      H2B            -8.5849606295       18.9267716896      -16.7489787140  MEMB      120             0.0000000000
     13956       120  CHL1      C20           -11.4518684847       18.2827688535       -7.3435402500  MEMB      120             0.0000000000
     13957       120  CHL1      H20           -11.8026817926       19.3360180840       -7.2791456001  MEMB      120             0.0000000000
     13958       120  CHL1      C21            -9.9351268730       18.2537685969       -7.0490517136  MEMB      120             0.0000000000
     13959       120  CHL1      H21A           -9.4548758562       17.2619532327       -7.0354951867  MEMB      120             0.0000000000
     13960       120  CHL1      H21B           -9.7979887139       18.6198002340       -6.0063691012  MEMB      120             0.0000000000
     13961       120  CHL1      H21C           -9.3762207626       18.9076076673       -7.7470236466  MEMB      120             0.0000000000
     13962       120  CHL1      C22           -12.1593442504       17.5711407693       -6.1936327268  MEMB      120             0.0000000000
     13963       120  CHL1      H22A          -12.0574873516       18.1692349682       -5.2641293034  MEMB      120             0.0000000000
     13964       120  CHL1      H22B          -13.2619705579       17.4735656889       -6.3686145753  MEMB      120             0.0000000000
     13965       120  CHL1      C23           -11.5013081080       16.2328508449       -5.9125105976  MEMB      120             0.0000000000
     13966       120  CHL1      H23A          -11.4936820286       15.5523966028       -6.8039468588  MEMB      120             0.0000000000
     13967       120  CHL1      H23B          -10.5774385039       16.1957243418       -5.3196379434  MEMB      120             0.0000000000
     13968       120  CHL1      C24           -12.3199487324       15.5604238171       -4.9392492209  MEMB      120             0.0000000000
     13969       120  CHL1      H24A          -13.1597215099       15.6727373790       -5.5905706720  MEMB      120             0.0000000000
     13970       120  CHL1      H24B          -11.9459904009       14.5072066793       -5.0206821116  MEMB      120             0.0000000000
     13971       120  CHL1      C25           -12.5861502521       16.2794786520       -3.5959610018  MEMB      120             0.0000000000
     13972       120  CHL1      H25           -12.9460792846       17.3111126459       -3.7828358819  MEMB      120             0.0000000000
     13973       120  CHL1      C26           -13.9189284901       16.2603235995       -3.0060709867  MEMB      120             0.0000000000
     13974       120  CHL1      H26A          -14.4897612015       16.1890954893       -3.9735336592  MEMB      120             0.0000000000
     13975       120  CHL1      H26B          -13.5756482341       15.2769117062       -2.7178385043  MEMB      120             0.0000000000
     13976       120  CHL1      H26C          -14.4169859669       16.0115887345       -2.0495821514  MEMB      120             0.0000000000
     13977       120  CHL1      C27           -11.6899472495       15.7725200897       -2.4913617199  MEMB      120             0.0000000000
     13978       120  CHL1      H27A          -12.1515704458       16.1361564582       -1.5362794837  MEMB      120             0.0000000000
     13979       120  CHL1      H27B          -11.6929643981       14.6436690355       -2.4474843868  MEMB      120             0.0000000000
     13980       120  CHL1      H27C          -10.7376564059       16.1673388201       -2.8254031446  MEMB      120             0.0000000000
     13981       121  OSM       N             -20.1789991509        5.2715925543      -23.0287896294  MEMB      121             0.0000000000
     13982       121  OSM       C15           -19.0769105268        4.4492899808      -22.4761290586  MEMB      121             0.0000000000
     13983       121  OSM       H15A          -19.1365670789        3.4304995390      -22.8624571167  MEMB      121             0.0000000000
     13984       121  OSM       H15B          -19.1785844425        4.3972385731      -21.3944172123  MEMB      121             0.0000000000
     13985       121  OSM       H15C          -18.1335488578        4.9083393915      -22.7013570390  MEMB      121             0.0000000000
     13986       121  OSM       C14           -19.7967029299        6.7137616681      -23.1118141217  MEMB      121             0.0000000000
     13987       121  OSM       H14A          -20.5766187572        7.3204819739      -23.5724561099  MEMB      121             0.0000000000
     13988       121  OSM       H14B          -18.9221660445        6.8616965743      -23.7191998282  MEMB      121             0.0000000000
     13989       121  OSM       H14C          -19.6440689362        7.1284728896      -22.1108255235  MEMB      121             0.0000000000
     13990       121  OSM       C13           -20.5277122636        4.7318962807      -24.3738880990  MEMB      121             0.0000000000
     13991       121  OSM       H13A          -21.0719599103        5.4784006475      -24.9482632848  MEMB      121             0.0000000000
     13992       121  OSM       H13B          -21.1831934864        3.8665148928      -24.2912647890  MEMB      121             0.0000000000
     13993       121  OSM       H13C          -19.7021129146        4.3916551368      -24.9764755812  MEMB      121             0.0000000000
     13994       121  OSM       C12           -21.4200728424        5.1344487816      -22.1455369291  MEMB      121             0.0000000000
     13995       121  OSM       H12A          -21.9023672758        4.2077071305      -22.4141112888  MEMB      121             0.0000000000
     13996       121  OSM       H12B          -22.0942828969        5.9513539777      -22.3682334974  MEMB      121             0.0000000000
     13997       121  OSM       C11           -21.3111534047        5.1425828505      -20.6160816509  MEMB      121             0.0000000000
     13998       121  OSM       H11A          -20.7039346585        4.2680172693      -20.2802014748  MEMB      121             0.0000000000
     13999       121  OSM       H11B          -22.3273362851        4.9900932595      -20.1748271973  MEMB      121             0.0000000000
     14000       121  OSM       P             -19.7311739172        6.4940225836      -19.0969615889  MEMB      121             0.0000000000
     14001       121  OSM       O13           -18.3974170995        6.4985905568      -19.7616254123  MEMB      121             0.0000000000
     14002       121  OSM       O14           -20.0384254996        7.5529176527      -18.1491884204  MEMB      121             0.0000000000
     14003       121  OSM       O11           -19.8609050891        5.0861220258      -18.3332982641  MEMB      121             0.0000000000
     14004       121  OSM       O12           -20.8166978469        6.4140006117      -20.2198153191  MEMB      121             0.0000000000
     14005       121  OSM       C1S           -18.8012978018        4.9159333321      -17.3821927186  MEMB      121             0.0000000000
     14006       121  OSM       H1S           -18.2384055000        5.8370295954      -17.1438161912  MEMB      121             0.0000000000
     14007       121  OSM       H1T           -18.0912865475        4.1399511245      -17.7494053898  MEMB      121             0.0000000000
     14008       121  OSM       NF            -18.2517526240        4.6098723436      -15.0551225101  MEMB      121             0.0000000000
     14009       121  OSM       HNF           -17.8974481197        3.7454670206      -14.6586913475  MEMB      121             0.0000000000
     14010       121  OSM       C2S           -19.2668006126        4.4166651765      -16.0346484905  MEMB      121             0.0000000000
     14011       121  OSM       H2S           -20.2091211403        4.9128131534      -15.6619179237  MEMB      121             0.0000000000
     14012       121  OSM       C3S           -19.4523156774        2.9959024469      -16.2961652261  MEMB      121             0.0000000000
     14013       121  OSM       H3S           -18.6096846463        2.3649362246      -16.5864589945  MEMB      121             0.0000000000
     14014       121  OSM       O3            -20.4418853252        2.6438549780      -17.2546900502  MEMB      121             0.0000000000
     14015       121  OSM       HO3           -20.4621214814        3.3238782191      -17.9390857238  MEMB      121             0.0000000000
     14016       121  OSM       C4S           -19.6886091014        2.4595637219      -15.0264423882  MEMB      121             0.0000000000
     14017       121  OSM       H4S           -20.8399055666        2.6937104390      -15.0709370972  MEMB      121             0.0000000000
     14018       121  OSM       C5S           -18.8574074151        1.4951767731      -14.2241001428  MEMB      121             0.0000000000
     14019       121  OSM       H5S           -18.1589748000        1.0019986124      -14.8515749188  MEMB      121             0.0000000000
     14020       121  OSM       C6S           -18.9147264068        0.6023248208      -12.7779413624  MEMB      121             0.0000000000
     14021       121  OSM       H6S           -19.0609812299       -0.5281266503      -12.8285233397  MEMB      121             0.0000000000
     14022       121  OSM       H6T           -19.8883876023        0.1803606735      -12.2875554417  MEMB      121             0.0000000000
     14023       121  OSM       C7S           -18.7078255767        1.2871876573      -11.3866683183  MEMB      121             0.0000000000
     14024       121  OSM       H7S           -17.6861132066        1.0435074474      -11.6436214978  MEMB      121             0.0000000000
     14025       121  OSM       H7T           -19.2516549358        0.5862521861      -10.6479914529  MEMB      121             0.0000000000
     14026       121  OSM       C8S           -18.9239915502        2.9163735798      -11.2030922939  MEMB      121             0.0000000000
     14027       121  OSM       H8S           -19.8987157809        3.4304269073      -11.3048040750  MEMB      121             0.0000000000
     14028       121  OSM       H8T           -18.5548498236        3.4576722630      -12.0382928643  MEMB      121             0.0000000000
     14029       121  OSM       C9S           -18.9312972859        3.5164258202       -9.8728388255  MEMB      121             0.0000000000
     14030       121  OSM       H9S           -19.6812826246        3.3561291715       -9.0909665619  MEMB      121             0.0000000000
     14031       121  OSM       H9T           -19.1980829531        4.5923167242       -9.8353815521  MEMB      121             0.0000000000
     14032       121  OSM       C10S          -17.9754504643        2.6037637441       -9.3249583164  MEMB      121             0.0000000000
     14033       121  OSM       H10S          -17.2044199855        2.6649764310      -10.0907903773  MEMB      121             0.0000000000
     14034       121  OSM       H10T          -17.6625948322        1.5629511557       -9.3807430011  MEMB      121             0.0000000000
     14035       121  OSM       C11S          -17.8757696433        3.1302128210       -8.0412994299  MEMB      121             0.0000000000
     14036       121  OSM       H11S          -17.9333022039        4.2491264620       -8.1294130965  MEMB      121             0.0000000000
     14037       121  OSM       H11T          -16.8800804292        2.6075314549       -7.9766072926  MEMB      121             0.0000000000
     14038       121  OSM       C12S          -18.9179040972        3.0314393348       -6.9791911304  MEMB      121             0.0000000000
     14039       121  OSM       H12S          -18.9873546786        1.9542025366       -6.9036534381  MEMB      121             0.0000000000
     14040       121  OSM       H12T          -19.8759160354        3.4549067023       -7.2621679163  MEMB      121             0.0000000000
     14041       121  OSM       C13S          -18.8468697419        3.9185615249       -5.7634834141  MEMB      121             0.0000000000
     14042       121  OSM       H13S          -18.9047528366        5.0051382143       -5.7358818370  MEMB      121             0.0000000000
     14043       121  OSM       H13T          -17.8349892004        3.8934710936       -5.5072364141  MEMB      121             0.0000000000
     14044       121  OSM       C14S          -19.6961092969        3.3251434546       -4.6740698284  MEMB      121             0.0000000000
     14045       121  OSM       H14S          -19.2569228476        2.3473758410       -4.7846231915  MEMB      121             0.0000000000
     14046       121  OSM       H14T          -20.7449599656        3.2670266654       -4.6488736750  MEMB      121             0.0000000000
     14047       121  OSM       C15S          -19.4410921363        3.8963356288       -3.3656058546  MEMB      121             0.0000000000
     14048       121  OSM       H15S          -19.3100962093        4.9829654041       -3.4956236741  MEMB      121             0.0000000000
     14049       121  OSM       H15T          -18.4461127621        3.4665678123       -3.7945944767  MEMB      121             0.0000000000
     14050       121  OSM       C16S          -19.7322189876        3.5337449930       -1.7541331549  MEMB      121             0.0000000000
     14051       121  OSM       H16S          -20.8064114722        3.4348743482       -1.6420681055  MEMB      121             0.0000000000
     14052       121  OSM       H16T          -19.4863841749        4.3218181829       -0.9882623529  MEMB      121             0.0000000000
     14053       121  OSM       C17S          -18.8387732497        2.4280878201       -0.8382200127  MEMB      121             0.0000000000
     14054       121  OSM       H17S          -18.3905686269        2.5288554508        0.1425847930  MEMB      121             0.0000000000
     14055       121  OSM       H17T          -17.9802943900        1.9151381258       -1.3674542580  MEMB      121             0.0000000000
     14056       121  OSM       C18S          -19.0014873148        1.2656586188       -0.6016770097  MEMB      121             0.0000000000
     14057       121  OSM       H18S          -18.5391048818        0.3140494555       -0.9233056497  MEMB      121             0.0000000000
     14058       121  OSM       H18T          -19.6981082888        1.7014961578       -1.3784254620  MEMB      121             0.0000000000
     14059       121  OSM       H18U          -19.6660535652        0.6574803871       -0.0427042286  MEMB      121             0.0000000000
     14060       121  OSM       C1F           -18.0273242839        5.9067749552      -14.7344606820  MEMB      121             0.0000000000
     14061       121  OSM       OF            -18.9222468203        6.7004690660      -14.7663201432  MEMB      121             0.0000000000
     14062       121  OSM       C2F           -16.7311923169        6.3866319067      -14.3149396887  MEMB      121             0.0000000000
     14063       121  OSM       H2F           -15.8559267980        6.5561705706      -15.0130435982  MEMB      121             0.0000000000
     14064       121  OSM       H2G           -16.5257895689        5.3186693343      -14.3083544168  MEMB      121             0.0000000000
     14065       121  OSM       C3F           -16.8559612946        7.1799821297      -12.8891417212  MEMB      121             0.0000000000
     14066       121  OSM       H3F           -16.5077691881        8.1726796734      -13.1474976729  MEMB      121             0.0000000000
     14067       121  OSM       H3G           -16.0681402633        7.0878901948      -12.1019485718  MEMB      121             0.0000000000
     14068       121  OSM       C4F           -18.0042888544        6.9270392387      -11.7845158988  MEMB      121             0.0000000000
     14069       121  OSM       H4F           -18.2789235486        5.9025762113      -11.3740667444  MEMB      121             0.0000000000
     14070       121  OSM       H4G           -18.9471645410        7.1369821166      -12.2637142685  MEMB      121             0.0000000000
     14071       121  OSM       C5F           -17.6049324160        7.6028305965      -10.4564270306  MEMB      121             0.0000000000
     14072       121  OSM       H5F           -17.3406366013        8.6438397807      -10.6786144022  MEMB      121             0.0000000000
     14073       121  OSM       H5G           -16.8033538594        7.1906836763       -9.8374155592  MEMB      121             0.0000000000
     14074       121  OSM       C6F           -18.6529444486        7.6465193453       -9.4640875056  MEMB      121             0.0000000000
     14075       121  OSM       H6F           -18.3886349496        8.2593134962       -8.5861524334  MEMB      121             0.0000000000
     14076       121  OSM       H6G           -19.0867760884        6.6699138667       -9.1400332677  MEMB      121             0.0000000000
     14077       121  OSM       C7F           -19.5928045343        8.4344018873      -10.1528246464  MEMB      121             0.0000000000
     14078       121  OSM       H7F           -20.1103705220        8.0011680009      -11.0390158911  MEMB      121             0.0000000000
     14079       121  OSM       H7G           -19.4195184719        9.5740785424      -10.1294114440  MEMB      121             0.0000000000
     14080       121  OSM       C8F           -20.6327367148        8.1351690482       -9.3246816905  MEMB      121             0.0000000000
     14081       121  OSM       H8F           -21.1809995019        9.0015670806       -9.7212459076  MEMB      121             0.0000000000
     14082       121  OSM       H8G           -20.2815070988        8.6758433614       -8.3784972036  MEMB      121             0.0000000000
     14083       121  OSM       C9F           -21.4598552617        6.7695307384       -9.2325624736  MEMB      121             0.0000000000
     14084       121  OSM       H9F           -22.3364123186        6.6897877064       -9.9205664971  MEMB      121             0.0000000000
     14085       121  OSM       C10F          -21.6167984164        6.0460846787       -8.0685170381  MEMB      121             0.0000000000
     14086       121  OSM       H10F          -22.4447743634        5.3152037251       -8.0237565356  MEMB      121             0.0000000000
     14087       121  OSM       C11F          -21.0367382175        6.3576544332       -6.6723675018  MEMB      121             0.0000000000
     14088       121  OSM       H11F          -20.2009652065        7.0863048519       -6.7624892073  MEMB      121             0.0000000000
     14089       121  OSM       H11G          -20.6153816899        5.4001723094       -6.3995521793  MEMB      121             0.0000000000
     14090       121  OSM       C12F          -21.8265159354        6.7722254491       -5.3600627691  MEMB      121             0.0000000000
     14091       121  OSM       H12F          -22.8232432989        6.3897475899       -5.2887972997  MEMB      121             0.0000000000
     14092       121  OSM       H12G          -22.0268914393        7.8019437337       -5.3572519985  MEMB      121             0.0000000000
     14093       121  OSM       C13F          -21.1938390086        6.9565636279       -3.9779676470  MEMB      121             0.0000000000
     14094       121  OSM       H13F          -20.8489049615        5.9804977026       -3.6832612635  MEMB      121             0.0000000000
     14095       121  OSM       H13G          -21.8697699204        7.4269679501       -3.2221970892  MEMB      121             0.0000000000
     14096       121  OSM       C14F          -20.0769206240        7.9372477691       -3.9941969903  MEMB      121             0.0000000000
     14097       121  OSM       H14F          -20.5020899086        8.8864307562       -4.4228103926  MEMB      121             0.0000000000
     14098       121  OSM       H14G          -19.4614135468        7.4510384897       -4.7446393129  MEMB      121             0.0000000000
     14099       121  OSM       C15F          -19.3273467225        8.0153440473       -2.6571446525  MEMB      121             0.0000000000
     14100       121  OSM       H15F          -18.6309133199        7.2218951961       -2.4596600890  MEMB      121             0.0000000000
     14101       121  OSM       H15G          -20.0531981208        8.3173457656       -1.8576978637  MEMB      121             0.0000000000
     14102       121  OSM       C16F          -18.5067654193        9.1366840081       -2.3638311160  MEMB      121             0.0000000000
     14103       121  OSM       H16F          -19.3914961594        9.7731378433       -2.6700404764  MEMB      121             0.0000000000
     14104       121  OSM       H16G          -17.5966792844        9.5551408844       -2.7404692036  MEMB      121             0.0000000000
     14105       121  OSM       C17F          -17.5841924343        9.5090558862       -1.2188592488  MEMB      121             0.0000000000
     14106       121  OSM       H17F          -18.2501409416        9.7460853096       -0.4059325521  MEMB      121             0.0000000000
     14107       121  OSM       H17G          -17.1911848180       10.4280804122       -0.9095754537  MEMB      121             0.0000000000
     14108       121  OSM       C18F          -16.0604065370        9.4731795411       -1.4443266742  MEMB      121             0.0000000000
     14109       121  OSM       H18F          -16.4296645629        8.5325906982       -1.8790807417  MEMB      121             0.0000000000
     14110       121  OSM       H18G          -15.6730541972        9.4020218840       -0.3915514556  MEMB      121             0.0000000000
     14111       121  OSM       H18H          -15.4173386619        9.0814830306       -2.2349863895  MEMB      121             0.0000000000
     14112       122  OSM       N               1.8684018992      -21.2368875532      -23.2025967256  MEMB      122             0.0000000000
     14113       122  OSM       C15             1.2453860066      -21.1035242953      -24.5314218595  MEMB      122             0.0000000000
     14114       122  OSM       H15A            0.3328731259      -21.7034130094      -24.5874001318  MEMB      122             0.0000000000
     14115       122  OSM       H15B            1.8792229369      -21.4135378286      -25.3413388780  MEMB      122             0.0000000000
     14116       122  OSM       H15C            0.9122381457      -20.0894702642      -24.6723212445  MEMB      122             0.0000000000
     14117       122  OSM       C14             2.6165253063      -22.5210074065      -23.1441104164  MEMB      122             0.0000000000
     14118       122  OSM       H14A            3.2638894141      -22.6768587345      -23.9876081263  MEMB      122             0.0000000000
     14119       122  OSM       H14B            1.9676684077      -23.3853767744      -23.0739333305  MEMB      122             0.0000000000
     14120       122  OSM       H14C            3.2749539927      -22.5441351953      -22.2690501793  MEMB      122             0.0000000000
     14121       122  OSM       C13             2.8267354810      -20.1064917228      -22.9721526629  MEMB      122             0.0000000000
     14122       122  OSM       H13A            2.3111920938      -19.1612428329      -22.9940638165  MEMB      122             0.0000000000
     14123       122  OSM       H13B            3.6303675656      -20.1058401966      -23.6917492463  MEMB      122             0.0000000000
     14124       122  OSM       H13C            3.2793332330      -20.2198363854      -21.9752819199  MEMB      122             0.0000000000
     14125       122  OSM       C12             0.7238813157      -21.2573536373      -22.1603860486  MEMB      122             0.0000000000
     14126       122  OSM       H12A            0.2740510501      -22.2486311583      -22.0942502418  MEMB      122             0.0000000000
     14127       122  OSM       H12B           -0.0896501694      -20.6339248167      -22.5050382114  MEMB      122             0.0000000000
     14128       122  OSM       C11             1.0198040720      -20.7826282505      -20.7219040405  MEMB      122             0.0000000000
     14129       122  OSM       H11A            0.1713885843      -21.0749969028      -20.0487363552  MEMB      122             0.0000000000
     14130       122  OSM       H11B            1.0513727524      -19.6746492937      -20.7466217873  MEMB      122             0.0000000000
     14131       122  OSM       P               2.8047647155      -21.1426029008      -18.8183745041  MEMB      122             0.0000000000
     14132       122  OSM       O13             3.4678515148      -22.4270554817      -18.5392608177  MEMB      122             0.0000000000
     14133       122  OSM       O14             3.6239736274      -19.9260574387      -18.6699043037  MEMB      122             0.0000000000
     14134       122  OSM       O11             1.5042593296      -20.9976375089      -17.9227757268  MEMB      122             0.0000000000
     14135       122  OSM       O12             2.2736914004      -21.2854185277      -20.2938916279  MEMB      122             0.0000000000
     14136       122  OSM       C1S             1.3587375724      -21.4572052052      -16.5866499994  MEMB      122             0.0000000000
     14137       122  OSM       H1S             1.6802573201      -22.5119926765      -16.4735402411  MEMB      122             0.0000000000
     14138       122  OSM       H1T             0.2788814984      -21.3945545812      -16.3328542629  MEMB      122             0.0000000000
     14139       122  OSM       NF              2.0538744125      -21.1861999092      -14.2327003808  MEMB      122             0.0000000000
     14140       122  OSM       HNF             1.5138064618      -20.8125345953      -13.5040707289  MEMB      122             0.0000000000
     14141       122  OSM       C2S             2.0848866397      -20.5758580696      -15.5488829978  MEMB      122             0.0000000000
     14142       122  OSM       H2S             3.1594032945      -20.4858154036      -15.8652619306  MEMB      122             0.0000000000
     14143       122  OSM       C3S             1.3945489527      -19.2096274882      -15.5648220966  MEMB      122             0.0000000000
     14144       122  OSM       H3S             0.3092203740      -19.2775485204      -15.3745875027  MEMB      122             0.0000000000
     14145       122  OSM       O3              1.6577268901      -18.4051187436      -16.7221547561  MEMB      122             0.0000000000
     14146       122  OSM       HO3             2.2514248756      -18.9527820757      -17.2555888136  MEMB      122             0.0000000000
     14147       122  OSM       C4S             1.7990459715      -18.5554892920      -14.3329272516  MEMB      122             0.0000000000
     14148       122  OSM       H4S             1.2421429239      -18.6244550404      -13.4054715188  MEMB      122             0.0000000000
     14149       122  OSM       C5S             2.8805487572      -17.9251808750      -14.3099020414  MEMB      122             0.0000000000
     14150       122  OSM       H5S             3.4145282820      -17.7288059470      -15.2480654134  MEMB      122             0.0000000000
     14151       122  OSM       C6S             3.2908695654      -17.2980258199      -13.1324460235  MEMB      122             0.0000000000
     14152       122  OSM       H6S             3.4787389611      -16.2156861337      -13.0947701586  MEMB      122             0.0000000000
     14153       122  OSM       H6T             4.2533645071      -17.5824949460      -13.3060837937  MEMB      122             0.0000000000
     14154       122  OSM       C7S             2.7569942330      -17.6628801128      -11.8574412459  MEMB      122             0.0000000000
     14155       122  OSM       H7S             1.6807073724      -17.3848425201      -11.9845648956  MEMB      122             0.0000000000
     14156       122  OSM       H7T             3.4512017157      -16.9313969685      -11.3759491240  MEMB      122             0.0000000000
     14157       122  OSM       C8S             3.0999529287      -18.7739806426      -10.9388285535  MEMB      122             0.0000000000
     14158       122  OSM       H8S             4.1519756877      -18.9921676643      -11.1629730091  MEMB      122             0.0000000000
     14159       122  OSM       H8T             2.3296708603      -19.4875536258      -11.2671341933  MEMB      122             0.0000000000
     14160       122  OSM       C9S             3.0058838279      -18.4675054025       -9.4275462037  MEMB      122             0.0000000000
     14161       122  OSM       H9S             1.9274997009      -18.2849515595       -9.2851171946  MEMB      122             0.0000000000
     14162       122  OSM       H9T             3.6230432576      -17.5998725237       -9.0917084659  MEMB      122             0.0000000000
     14163       122  OSM       C10S            3.4319142278      -19.5637513693       -8.4587435668  MEMB      122             0.0000000000
     14164       122  OSM       H10S            4.5232239372      -19.7004991198       -8.6101339755  MEMB      122             0.0000000000
     14165       122  OSM       H10T            2.8680825737      -20.4671943189       -8.7546316473  MEMB      122             0.0000000000
     14166       122  OSM       C11S            3.1857975683      -19.2429699160       -6.9649931815  MEMB      122             0.0000000000
     14167       122  OSM       H11S            2.1073849252      -19.0314658423       -6.7994644468  MEMB      122             0.0000000000
     14168       122  OSM       H11T            3.7332360914      -18.3232008954       -6.6721832305  MEMB      122             0.0000000000
     14169       122  OSM       C12S            3.5697375259      -20.3695287849       -5.9950508473  MEMB      122             0.0000000000
     14170       122  OSM       H12S            3.0849576876      -20.1433797938       -5.0154804322  MEMB      122             0.0000000000
     14171       122  OSM       H12T            4.6695111367      -20.3798254769       -5.8110536159  MEMB      122             0.0000000000
     14172       122  OSM       C13S            3.0305837792      -21.7318166649       -6.4368884097  MEMB      122             0.0000000000
     14173       122  OSM       H13S            3.2852381631      -22.0088852632       -7.4800627105  MEMB      122             0.0000000000
     14174       122  OSM       H13T            1.9202131393      -21.6881985011       -6.4185205376  MEMB      122             0.0000000000
     14175       122  OSM       C14S            3.4807088575      -22.8400683787       -5.5068810951  MEMB      122             0.0000000000
     14176       122  OSM       H14S            4.5656165529      -22.7712612654       -5.2642167964  MEMB      122             0.0000000000
     14177       122  OSM       H14T            3.3435042469      -23.7789378276       -6.0577864787  MEMB      122             0.0000000000
     14178       122  OSM       C15S            2.6823193170      -22.8295061153       -4.2046696354  MEMB      122             0.0000000000
     14179       122  OSM       H15S            1.6729213311      -23.3086503540       -4.3473459596  MEMB      122             0.0000000000
     14180       122  OSM       H15T            2.5005789927      -21.7919346949       -3.9510296540  MEMB      122             0.0000000000
     14181       122  OSM       C16S            3.5634780829      -23.4539371651       -3.0851746717  MEMB      122             0.0000000000
     14182       122  OSM       H16S            4.6198884816      -23.6522383747       -3.2493884218  MEMB      122             0.0000000000
     14183       122  OSM       H16T            3.2131399226      -24.2465130264       -3.5370723245  MEMB      122             0.0000000000
     14184       122  OSM       C17S            3.0748997894      -23.7404551775       -1.6087018066  MEMB      122             0.0000000000
     14185       122  OSM       H17S            2.0110740195      -23.3556756898       -1.5650776942  MEMB      122             0.0000000000
     14186       122  OSM       H17T            3.9430693234      -23.1238862662       -1.3975302224  MEMB      122             0.0000000000
     14187       122  OSM       C18S            3.5010244951      -24.7050487586       -0.4427658393  MEMB      122             0.0000000000
     14188       122  OSM       H18S            4.5704399579      -24.7695300460       -0.3695418138  MEMB      122             0.0000000000
     14189       122  OSM       H18T            3.2864439169      -25.7389056438       -0.4707025043  MEMB      122             0.0000000000
     14190       122  OSM       H18U            2.9404938245      -24.6392508933        0.4958781787  MEMB      122             0.0000000000
     14191       122  OSM       C1F             2.7484707092      -22.2308658569      -13.9741421946  MEMB      122             0.0000000000
     14192       122  OSM       OF              3.2757382226      -22.8351961501      -14.8775316328  MEMB      122             0.0000000000
     14193       122  OSM       C2F             2.8572715349      -22.5794756881      -12.5425729253  MEMB      122             0.0000000000
     14194       122  OSM       H2F             3.5431927222      -21.9382926305      -11.9666670536  MEMB      122             0.0000000000
     14195       122  OSM       H2G             3.4043104683      -23.4830294851      -12.5493445025  MEMB      122             0.0000000000
     14196       122  OSM       C3F             1.5074623486      -22.8709248557      -11.8637220544  MEMB      122             0.0000000000
     14197       122  OSM       H3F             1.0665119060      -23.8206951634      -12.2661278390  MEMB      122             0.0000000000
     14198       122  OSM       H3G             0.8127730028      -22.0475132222      -12.0853277682  MEMB      122             0.0000000000
     14199       122  OSM       C4F             1.6077391051      -22.8849993758      -10.3397526061  MEMB      122             0.0000000000
     14200       122  OSM       H4F             1.9623328442      -21.9411982554       -9.9130372054  MEMB      122             0.0000000000
     14201       122  OSM       H4G             2.4024907921      -23.4222544581       -9.8936612105  MEMB      122             0.0000000000
     14202       122  OSM       C5F             0.3837898861      -23.3746495195       -9.6540393579  MEMB      122             0.0000000000
     14203       122  OSM       H5F             0.7059472915      -24.1006267360       -8.8566192206  MEMB      122             0.0000000000
     14204       122  OSM       H5G            -0.2855556485      -23.9495186437      -10.3336575581  MEMB      122             0.0000000000
     14205       122  OSM       C6F            -0.2676428033      -22.0925819067       -9.1192510475  MEMB      122             0.0000000000
     14206       122  OSM       H6F            -0.5152423757      -21.3984913919       -9.9447087627  MEMB      122             0.0000000000
     14207       122  OSM       H6G             0.2724678646      -21.6515628926       -8.2656747869  MEMB      122             0.0000000000
     14208       122  OSM       C7F            -1.5522967157      -22.3929579372       -8.5725475109  MEMB      122             0.0000000000
     14209       122  OSM       H7F            -1.9933811128      -22.5514733347       -9.5579804380  MEMB      122             0.0000000000
     14210       122  OSM       H7G            -2.3196226188      -21.7600567719       -8.0860192899  MEMB      122             0.0000000000
     14211       122  OSM       C8F            -1.2750914956      -23.5801642364       -7.7524779586  MEMB      122             0.0000000000
     14212       122  OSM       H8F            -1.1690734291      -24.5825733021       -8.2819541730  MEMB      122             0.0000000000
     14213       122  OSM       H8G            -2.3423666491      -23.5590043544       -7.5215014182  MEMB      122             0.0000000000
     14214       122  OSM       C9F            -0.4957550321      -23.4155548453       -6.4923162881  MEMB      122             0.0000000000
     14215       122  OSM       H9F            -0.0000631354      -24.3757244617       -6.2568674242  MEMB      122             0.0000000000
     14216       122  OSM       C10F           -0.9706316703      -22.6844792910       -5.4564399632  MEMB      122             0.0000000000
     14217       122  OSM       H10F           -0.4709749225      -22.7897666317       -4.4872833958  MEMB      122             0.0000000000
     14218       122  OSM       C11F           -2.2686980195      -21.9182577549       -5.3081212373  MEMB      122             0.0000000000
     14219       122  OSM       H11F           -2.8199065036      -22.1176790391       -4.3523083574  MEMB      122             0.0000000000
     14220       122  OSM       H11G           -3.0354681631      -22.1395146081       -6.0833335000  MEMB      122             0.0000000000
     14221       122  OSM       C12F           -1.8035952432      -20.4735620326       -5.4360437257  MEMB      122             0.0000000000
     14222       122  OSM       H12F           -2.7131063999      -19.8374689200       -5.4977988670  MEMB      122             0.0000000000
     14223       122  OSM       H12G           -1.2652587650      -20.3465542338       -6.4010142684  MEMB      122             0.0000000000
     14224       122  OSM       C13F           -0.8004122155      -20.0087695391       -4.3700596459  MEMB      122             0.0000000000
     14225       122  OSM       H13F           -0.3802254286      -19.0198017564       -4.6753148070  MEMB      122             0.0000000000
     14226       122  OSM       H13G            0.0641616464      -20.6696339963       -4.1806773263  MEMB      122             0.0000000000
     14227       122  OSM       C14F           -1.4099823060      -19.8867571258       -3.0265733202  MEMB      122             0.0000000000
     14228       122  OSM       H14F           -1.7575960429      -20.7847106430       -2.4927482163  MEMB      122             0.0000000000
     14229       122  OSM       H14G           -2.3031948946      -19.2144222681       -3.1976641952  MEMB      122             0.0000000000
     14230       122  OSM       C15F           -0.4692476791      -19.2142317794       -2.0936453713  MEMB      122             0.0000000000
     14231       122  OSM       H15F           -1.1305534490      -19.1085689674       -1.1504986859  MEMB      122             0.0000000000
     14232       122  OSM       H15G            0.0578523549      -18.3291456924       -2.5860906970  MEMB      122             0.0000000000
     14233       122  OSM       C16F            0.7453293082      -19.3018008869       -1.4747793134  MEMB      122             0.0000000000
     14234       122  OSM       H16F            0.9124156673      -18.3682551025       -0.8083946581  MEMB      122             0.0000000000
     14235       122  OSM       H16G            1.5990299175      -19.2828899324       -2.1969736002  MEMB      122             0.0000000000
     14236       122  OSM       C17F            0.2925699489      -20.4574383258       -0.7137730787  MEMB      122             0.0000000000
     14237       122  OSM       H17F            0.3957304532      -21.2218769029       -1.5580720068  MEMB      122             0.0000000000
     14238       122  OSM       H17G           -0.6429635842      -20.8103534936       -0.2629265921  MEMB      122             0.0000000000
     14239       122  OSM       C18F            1.1923999239      -19.9618304247        0.3586924748  MEMB      122             0.0000000000
     14240       122  OSM       H18F            2.1883586378      -19.5468699980        0.0261560457  MEMB      122             0.0000000000
     14241       122  OSM       H18G            1.2346356994      -20.9736622354        0.0659478558  MEMB      122             0.0000000000
     14242       122  OSM       H18H            1.3325158504      -20.1535008895        1.4111981395  MEMB      122             0.0000000000
     14243       123  SAPE      N              19.2078017190       -7.0463462637      -17.4304771097  MEMB      123             0.0000000000
     14244       123  SAPE      HN1            19.3035979641       -6.1208499448      -16.9650973867  MEMB      123             0.0000000000
     14245       123  SAPE      HN2            18.3039220552       -7.4318642504      -17.0084398755  MEMB      123             0.0000000000
     14246       123  SAPE      HN3            19.9691227289       -7.7318101925      -17.2906422143  MEMB      123             0.0000000000
     14247       123  SAPE      C12            19.2858405129       -6.6914843755      -18.9339238878  MEMB      123             0.0000000000
     14248       123  SAPE      H12A           19.3240019209       -5.6271589380      -19.1140545624  MEMB      123             0.0000000000
     14249       123  SAPE      H12B           18.4064708360       -6.2874063057      -19.4098562433  MEMB      123             0.0000000000
     14250       123  SAPE      C11            19.3814090560       -7.8998666042      -19.8163392605  MEMB      123             0.0000000000
     14251       123  SAPE      H11A           18.9492536269       -7.7208418417      -20.8555017962  MEMB      123             0.0000000000
     14252       123  SAPE      H11B           18.7899146667       -8.7677853938      -19.4761254903  MEMB      123             0.0000000000
     14253       123  SAPE      P              21.2416075365       -9.0590842606      -20.8534925426  MEMB      123             0.0000000000
     14254       123  SAPE      O13            20.6883868513      -10.4021600855      -20.6833341468  MEMB      123             0.0000000000
     14255       123  SAPE      O14            20.9264331660       -8.3363199509      -22.0996588630  MEMB      123             0.0000000000
     14256       123  SAPE      O12            20.7056936328       -8.2288380550      -19.6591493381  MEMB      123             0.0000000000
     14257       123  SAPE      O11            22.7678794959       -9.0576207731      -20.5978662118  MEMB      123             0.0000000000
     14258       123  SAPE      C1             23.4574792386       -8.1510159832      -19.7618755157  MEMB      123             0.0000000000
     14259       123  SAPE      HA             24.4523415801       -8.1047839934      -20.2099664081  MEMB      123             0.0000000000
     14260       123  SAPE      HB             23.1651781642       -7.0857982811      -19.8478969717  MEMB      123             0.0000000000
     14261       123  SAPE      C2             23.5427504840       -8.6055838521      -18.2742540636  MEMB      123             0.0000000000
     14262       123  SAPE      HS             24.4109444810       -9.3045618843      -18.2229420647  MEMB      123             0.0000000000
     14263       123  SAPE      O21            22.3134060730       -9.2346879614      -17.8242711285  MEMB      123             0.0000000000
     14264       123  SAPE      C21            22.4869721875      -10.4687367960      -17.4020691972  MEMB      123             0.0000000000
     14265       123  SAPE      O22            23.5543891034      -11.0305404703      -17.2509103405  MEMB      123             0.0000000000
     14266       123  SAPE      C22            21.1298394416      -11.0358211651      -17.0574187112  MEMB      123             0.0000000000
     14267       123  SAPE      H2R            20.5018300150      -10.8831838934      -17.9713328128  MEMB      123             0.0000000000
     14268       123  SAPE      H2S            21.1787530723      -12.1224435206      -16.8606630346  MEMB      123             0.0000000000
     14269       123  SAPE      C3             23.8790524003       -7.4215028100      -17.3387993811  MEMB      123             0.0000000000
     14270       123  SAPE      HX             23.1861565131       -6.5712325214      -17.5378965652  MEMB      123             0.0000000000
     14271       123  SAPE      HY             24.9102778495       -7.0811481076      -17.5724581200  MEMB      123             0.0000000000
     14272       123  SAPE      O31            23.7435496327       -7.9068795982      -15.9922856835  MEMB      123             0.0000000000
     14273       123  SAPE      C31            24.0073269715       -7.1099404774      -14.9761975838  MEMB      123             0.0000000000
     14274       123  SAPE      O32            24.4864902284       -6.0099349220      -15.0158664899  MEMB      123             0.0000000000
     14275       123  SAPE      C32            23.6168145157       -7.7552145166      -13.6818612262  MEMB      123             0.0000000000
     14276       123  SAPE      H2X            24.1796850222       -8.7043949676      -13.6212119502  MEMB      123             0.0000000000
     14277       123  SAPE      H2Y            22.5344412708       -7.9650277637      -13.7713645272  MEMB      123             0.0000000000
     14278       123  SAPE      C23            20.5296988912      -10.3248391368      -15.8465258276  MEMB      123             0.0000000000
     14279       123  SAPE      H3R            20.4100931577       -9.2611662579      -16.1410929968  MEMB      123             0.0000000000
     14280       123  SAPE      H3S            21.0589296248      -10.4269037733      -14.8873903714  MEMB      123             0.0000000000
     14281       123  SAPE      C24            19.1477528589      -10.7870543729      -15.5660430666  MEMB      123             0.0000000000
     14282       123  SAPE      H4R            18.8516072573      -10.9149627299      -16.6316940117  MEMB      123             0.0000000000
     14283       123  SAPE      H4S            18.6525719490       -9.9029996130      -15.0778199258  MEMB      123             0.0000000000
     14284       123  SAPE      C25            18.8660643780      -12.0513682912      -14.8164780119  MEMB      123             0.0000000000
     14285       123  SAPE      H5R            18.6698210826      -12.9330001052      -15.4502116945  MEMB      123             0.0000000000
     14286       123  SAPE      C26            18.5740975686      -12.1335592136      -13.5085558204  MEMB      123             0.0000000000
     14287       123  SAPE      H6R            18.1441330407      -13.0804145371      -13.1593910303  MEMB      123             0.0000000000
     14288       123  SAPE      C27            18.4478402004      -11.0115896070      -12.4920488420  MEMB      123             0.0000000000
     14289       123  SAPE      H7R            17.6983029973      -11.2409041691      -11.6917139319  MEMB      123             0.0000000000
     14290       123  SAPE      H7S            18.0348387498      -10.1098916229      -12.9909295377  MEMB      123             0.0000000000
     14291       123  SAPE      C28            19.6520362282      -10.5920403024      -11.7890481956  MEMB      123             0.0000000000
     14292       123  SAPE      H8R            20.5426198442      -11.1536622156      -12.0479677588  MEMB      123             0.0000000000
     14293       123  SAPE      C29            19.6073228950       -9.9205656606      -10.6523170944  MEMB      123             0.0000000000
     14294       123  SAPE      H9R            20.5551114042       -9.5241941598      -10.2622827879  MEMB      123             0.0000000000
     14295       123  SAPE      C210           18.3632097984       -9.5020034102       -9.9376390290  MEMB      123             0.0000000000
     14296       123  SAPE      H10R           18.1811107900      -10.0531359899       -9.0122099991  MEMB      123             0.0000000000
     14297       123  SAPE      H10S           17.3745801457       -9.4786897305      -10.4684025044  MEMB      123             0.0000000000
     14298       123  SAPE      C211           18.7728237052       -8.1611263854       -9.6183538030  MEMB      123             0.0000000000
     14299       123  SAPE      H11R           18.3723564089       -7.5559341504      -10.4377284575  MEMB      123             0.0000000000
     14300       123  SAPE      C212           19.2898733153       -7.6193037347       -8.4830752348  MEMB      123             0.0000000000
     14301       123  SAPE      H12R           19.0205574687       -6.5838480368       -8.1854536289  MEMB      123             0.0000000000
     14302       123  SAPE      C213           19.5627144376       -8.4030664176       -7.3017492580  MEMB      123             0.0000000000
     14303       123  SAPE      H13R           20.1901615003       -9.1556776656       -7.7609735522  MEMB      123             0.0000000000
     14304       123  SAPE      H13S           18.6620559216       -8.8902191956       -6.8600996383  MEMB      123             0.0000000000
     14305       123  SAPE      C214           20.3892264991       -7.5147302538       -6.4255997215  MEMB      123             0.0000000000
     14306       123  SAPE      H14R           21.2004995406       -6.9419742418       -6.8724127763  MEMB      123             0.0000000000
     14307       123  SAPE      C215           20.1657367040       -7.2664907200       -5.1630051611  MEMB      123             0.0000000000
     14308       123  SAPE      H15R           20.8914277409       -6.7145618598       -4.5743824171  MEMB      123             0.0000000000
     14309       123  SAPE      C216           19.0742566919       -7.8423159882       -4.4034345702  MEMB      123             0.0000000000
     14310       123  SAPE      H16R           18.7690392500       -8.7533720688       -4.8411608970  MEMB      123             0.0000000000
     14311       123  SAPE      H16S           18.1728908551       -7.2651304957       -4.1059214267  MEMB      123             0.0000000000
     14312       123  SAPE      C217           19.9383403353       -8.4247908087       -3.3670122063  MEMB      123             0.0000000000
     14313       123  SAPE      H17R           20.8427833625       -9.0235402114       -3.5176951824  MEMB      123             0.0000000000
     14314       123  SAPE      H17S           19.2356622730       -8.7838051619       -2.6326894091  MEMB      123             0.0000000000
     14315       123  SAPE      C218           20.4062132798       -7.7018410354       -2.2662097163  MEMB      123             0.0000000000
     14316       123  SAPE      H18R           19.4713046745       -7.0510277290       -2.2995012549  MEMB      123             0.0000000000
     14317       123  SAPE      H18S           21.0773528211       -6.9490360328       -2.6192281841  MEMB      123             0.0000000000
     14318       123  SAPE      C219           20.7090642472       -8.7702583078       -0.9929683557  MEMB      123             0.0000000000
     14319       123  SAPE      H19R           21.2969447444       -8.0791450321       -0.2719563540  MEMB      123             0.0000000000
     14320       123  SAPE      H19S           21.7765891732       -8.8958959288       -0.9010304765  MEMB      123             0.0000000000
     14321       123  SAPE      C220           19.2839819780       -9.7031636877       -0.2228401704  MEMB      123             0.0000000000
     14322       123  SAPE      H20R           19.3602837289      -10.2073737358        0.7933272170  MEMB      123             0.0000000000
     14323       123  SAPE      H20S           18.3160319647       -9.7466269898       -0.7281840433  MEMB      123             0.0000000000
     14324       123  SAPE      H20T           18.3325176691       -9.0995588297        0.1144121946  MEMB      123             0.0000000000
     14325       123  SAPE      C33            23.9294856932       -6.7997520656      -12.5006627185  MEMB      123             0.0000000000
     14326       123  SAPE      H3X            23.3909349475       -5.8320399158      -12.6333061836  MEMB      123             0.0000000000
     14327       123  SAPE      H3Y            25.0106428459       -6.5385389396      -12.4764026531  MEMB      123             0.0000000000
     14328       123  SAPE      C34            23.5385675554       -7.3590976029      -11.1321899599  MEMB      123             0.0000000000
     14329       123  SAPE      H4X            24.0937294670       -8.3050387135      -10.9404777446  MEMB      123             0.0000000000
     14330       123  SAPE      H4Y            22.4471341510       -7.5844771463      -11.1469148658  MEMB      123             0.0000000000
     14331       123  SAPE      C35            23.8370097767       -6.3753115423       -9.9962820799  MEMB      123             0.0000000000
     14332       123  SAPE      H5X            23.5536903719       -6.8316898993       -9.0256678135  MEMB      123             0.0000000000
     14333       123  SAPE      H5Y            23.2665997209       -5.4249131506      -10.1216510470  MEMB      123             0.0000000000
     14334       123  SAPE      C36            25.2989568887       -5.9916404100       -9.8713434458  MEMB      123             0.0000000000
     14335       123  SAPE      H6X            25.6192859047       -5.5147714585      -10.8181655182  MEMB      123             0.0000000000
     14336       123  SAPE      H6Y            25.9388239776       -6.8912983182       -9.7002190872  MEMB      123             0.0000000000
     14337       123  SAPE      C37            25.4524126849       -4.9931349388       -8.7406820337  MEMB      123             0.0000000000
     14338       123  SAPE      H7X            24.9176098279       -4.0395429014       -8.8735995143  MEMB      123             0.0000000000
     14339       123  SAPE      H7Y            26.4477872463       -4.5914867502       -8.6994503303  MEMB      123             0.0000000000
     14340       123  SAPE      C38            25.2122540529       -5.5912881828       -7.3735058843  MEMB      123             0.0000000000
     14341       123  SAPE      H8X            25.9220284113       -5.0020707893       -6.7709190215  MEMB      123             0.0000000000
     14342       123  SAPE      H8Y            25.5470429029       -6.6474172098       -7.3123276290  MEMB      123             0.0000000000
     14343       123  SAPE      C39            23.8146796269       -5.2961816682       -6.8289601528  MEMB      123             0.0000000000
     14344       123  SAPE      H9X            23.0125099219       -5.7234545095       -7.4418730153  MEMB      123             0.0000000000
     14345       123  SAPE      H9Y            23.7300376907       -4.1872744365       -6.7640974834  MEMB      123             0.0000000000
     14346       123  SAPE      C310           23.5046874746       -5.8935221444       -5.4795371273  MEMB      123             0.0000000000
     14347       123  SAPE      H10X           22.5727784703       -5.5889035221       -5.0051641950  MEMB      123             0.0000000000
     14348       123  SAPE      H10Y           24.0469471379       -5.2241614653       -4.8343463652  MEMB      123             0.0000000000
     14349       123  SAPE      C311           23.7533862025       -7.4263686926       -5.4286336111  MEMB      123             0.0000000000
     14350       123  SAPE      H11X           24.7961709023       -7.7301698196       -5.7337408554  MEMB      123             0.0000000000
     14351       123  SAPE      H11Y           23.0273423615       -7.9303363707       -6.0600905290  MEMB      123             0.0000000000
     14352       123  SAPE      C312           23.5442332221       -7.9855743879       -4.0443927643  MEMB      123             0.0000000000
     14353       123  SAPE      H12X           22.6110198550       -7.8017924343       -3.5376186026  MEMB      123             0.0000000000
     14354       123  SAPE      H12Y           23.9737855181       -7.1499733914       -3.5907299929  MEMB      123             0.0000000000
     14355       123  SAPE      C313           24.1284012181       -9.3835120609       -3.8282307049  MEMB      123             0.0000000000
     14356       123  SAPE      H13X           25.2325314801       -9.4214526504       -3.9751522668  MEMB      123             0.0000000000
     14357       123  SAPE      H13Y           23.6331178403       -9.9046599573       -4.6840576937  MEMB      123             0.0000000000
     14358       123  SAPE      C314           23.7460636522      -10.0960220759       -2.5102015161  MEMB      123             0.0000000000
     14359       123  SAPE      H14X           23.9412860002      -11.1793719676       -2.6309290638  MEMB      123             0.0000000000
     14360       123  SAPE      H14Y           22.6690666084       -9.9631469386       -2.3013498438  MEMB      123             0.0000000000
     14361       123  SAPE      C315           24.5514573770       -9.7731315857       -1.2509090946  MEMB      123             0.0000000000
     14362       123  SAPE      H15X           24.5403237639       -8.7267080485       -1.0497031511  MEMB      123             0.0000000000
     14363       123  SAPE      H15Y           25.5999152492      -10.1010084852       -1.3355688847  MEMB      123             0.0000000000
     14364       123  SAPE      C316           23.8942136680      -10.1788404171        0.0617120163  MEMB      123             0.0000000000
     14365       123  SAPE      H16X           23.5709883616      -11.2110293960        0.0444234764  MEMB      123             0.0000000000
     14366       123  SAPE      H16Y           22.9941409599       -9.5747234509        0.1830725223  MEMB      123             0.0000000000
     14367       123  SAPE      C317           24.6147604079       -9.7695292613        1.3208893780  MEMB      123             0.0000000000
     14368       123  SAPE      H17X           25.7043322094      -10.0077379674        1.3144732635  MEMB      123             0.0000000000
     14369       123  SAPE      H17Y           24.2911736496      -10.0550183759        2.2962873884  MEMB      123             0.0000000000
     14370       123  SAPE      C318           23.9955986526       -8.5130034423        1.8961366794  MEMB      123             0.0000000000
     14371       123  SAPE      H18X           23.4546890664       -7.6651172586        1.4681748714  MEMB      123             0.0000000000
     14372       123  SAPE      H18Y           24.1333002371       -8.1247722677        0.8978623976  MEMB      123             0.0000000000
     14373       123  SAPE      H18Z           24.7301235498       -8.1953507179        2.6684044533  MEMB      123             0.0000000000
     14374       124  SAPC      N             -13.8050520881      -15.9798809973      -20.4445530526  MEMB      124             0.0000000000
     14375       124  SAPC      C12           -12.3607462742      -16.3730895468      -20.7668132136  MEMB      124             0.0000000000
     14376       124  SAPC      H12A          -11.7050783067      -16.2078101744      -19.9116227688  MEMB      124             0.0000000000
     14377       124  SAPC      H12B          -11.9935930557      -15.7382714138      -21.5545056936  MEMB      124             0.0000000000
     14378       124  SAPC      C13           -13.9572937348      -14.5150306205      -20.1733768209  MEMB      124             0.0000000000
     14379       124  SAPC      H13A          -13.8502724487      -13.9174945667      -21.0672193782  MEMB      124             0.0000000000
     14380       124  SAPC      H13B          -14.9525913568      -14.2949343019      -19.8002849771  MEMB      124             0.0000000000
     14381       124  SAPC      H13C          -13.2698234475      -14.1848003413      -19.4091510600  MEMB      124             0.0000000000
     14382       124  SAPC      C14           -14.6833227363      -16.2723652682      -21.6086100345  MEMB      124             0.0000000000
     14383       124  SAPC      H14A          -14.7416212771      -17.3345064708      -21.7636679255  MEMB      124             0.0000000000
     14384       124  SAPC      H14B          -15.6816187965      -15.8963141942      -21.4266009224  MEMB      124             0.0000000000
     14385       124  SAPC      H14C          -14.2703311099      -15.8120955802      -22.5049376923  MEMB      124             0.0000000000
     14386       124  SAPC      C15           -14.3097198917      -16.7112012199      -19.2342224418  MEMB      124             0.0000000000
     14387       124  SAPC      H15A          -14.3003125212      -17.7926255491      -19.3853025441  MEMB      124             0.0000000000
     14388       124  SAPC      H15B          -13.6796111966      -16.5196635383      -18.3708779785  MEMB      124             0.0000000000
     14389       124  SAPC      H15C          -15.3155860804      -16.3867367995      -18.9913886565  MEMB      124             0.0000000000
     14390       124  SAPC      C11           -12.0643869589      -17.8129424843      -21.2474417244  MEMB      124             0.0000000000
     14391       124  SAPC      H11A          -11.0000871760      -17.8609979504      -21.6104077199  MEMB      124             0.0000000000
     14392       124  SAPC      H11B          -12.6275011260      -18.0610520061      -22.1463057502  MEMB      124             0.0000000000
     14393       124  SAPC      P             -11.1801426596      -19.2503300999      -19.3518883500  MEMB      124             0.0000000000
     14394       124  SAPC      O13           -10.8204253522      -20.5846415861      -19.8663469053  MEMB      124             0.0000000000
     14395       124  SAPC      O14           -10.1816380021      -18.1769351767      -19.3192537462  MEMB      124             0.0000000000
     14396       124  SAPC      O12           -12.3938333981      -18.7682508160      -20.2413697673  MEMB      124             0.0000000000
     14397       124  SAPC      O11           -11.8283703515      -19.4329773096      -17.9128569033  MEMB      124             0.0000000000
     14398       124  SAPC      C1            -12.7895931453      -20.4542276000      -17.6910780561  MEMB      124             0.0000000000
     14399       124  SAPC      HA            -13.1881036225      -20.9253645177      -18.6250422030  MEMB      124             0.0000000000
     14400       124  SAPC      HB            -12.3196209902      -21.2775856636      -17.1099746232  MEMB      124             0.0000000000
     14401       124  SAPC      C2            -13.9832759580      -19.8555685004      -16.9277904089  MEMB      124             0.0000000000
     14402       124  SAPC      HS            -14.5042387370      -19.1634308574      -17.6305496037  MEMB      124             0.0000000000
     14403       124  SAPC      O21           -13.5722920741      -19.1505008988      -15.7465954265  MEMB      124             0.0000000000
     14404       124  SAPC      C21           -14.5620038776      -18.5186231622      -15.1486606234  MEMB      124             0.0000000000
     14405       124  SAPC      O22           -15.6881603409      -18.3730026196      -15.5976613127  MEMB      124             0.0000000000
     14406       124  SAPC      C22           -14.0397420103      -17.9480502139      -13.8568973739  MEMB      124             0.0000000000
     14407       124  SAPC      H2R           -13.8409630447      -18.7810622663      -13.1545044402  MEMB      124             0.0000000000
     14408       124  SAPC      H2S           -13.0661779088      -17.4598561002      -14.0697579961  MEMB      124             0.0000000000
     14409       124  SAPC      C3            -14.8758872182      -20.9967142509      -16.4818259608  MEMB      124             0.0000000000
     14410       124  SAPC      HX            -15.2755770931      -21.4995807557      -17.4046616742  MEMB      124             0.0000000000
     14411       124  SAPC      HY            -15.7135744586      -20.5865959672      -15.9553428068  MEMB      124             0.0000000000
     14412       124  SAPC      O31           -14.1226037608      -21.8036809842      -15.5524602121  MEMB      124             0.0000000000
     14413       124  SAPC      C31           -14.7037122953      -22.6226903321      -14.5667896404  MEMB      124             0.0000000000
     14414       124  SAPC      O32           -15.7836160153      -22.6029662866      -14.2372533477  MEMB      124             0.0000000000
     14415       124  SAPC      C32           -14.0934310651      -23.7856709454      -13.9034077867  MEMB      124             0.0000000000
     14416       124  SAPC      H2X           -14.0464705485      -24.8349506757      -14.1202431391  MEMB      124             0.0000000000
     14417       124  SAPC      H2Y           -14.3105553543      -24.3630761856      -13.0331404162  MEMB      124             0.0000000000
     14418       124  SAPC      C23           -15.0126740123      -16.9226188413      -13.2727987966  MEMB      124             0.0000000000
     14419       124  SAPC      H3R           -16.0297089864      -17.3609387476      -13.1064162153  MEMB      124             0.0000000000
     14420       124  SAPC      H3S           -15.1375895976      -16.0803752431      -13.9952677509  MEMB      124             0.0000000000
     14421       124  SAPC      C24           -14.4382301889      -16.3688058307      -11.9735174879  MEMB      124             0.0000000000
     14422       124  SAPC      H4R           -13.3997632876      -16.0701970434      -12.1042297741  MEMB      124             0.0000000000
     14423       124  SAPC      H4S           -14.4163839445      -17.1847905068      -11.2214014028  MEMB      124             0.0000000000
     14424       124  SAPC      C25           -15.3292525737      -15.2101666907      -11.6557233706  MEMB      124             0.0000000000
     14425       124  SAPC      H5R           -15.1075767400      -14.2353079660      -12.0757256873  MEMB      124             0.0000000000
     14426       124  SAPC      C26           -16.0800794327      -15.1625200326      -10.5729221511  MEMB      124             0.0000000000
     14427       124  SAPC      H6R           -16.8618377169      -14.3849850156      -10.5289139847  MEMB      124             0.0000000000
     14428       124  SAPC      C27           -16.3018273241      -16.0500683401       -9.4063059695  MEMB      124             0.0000000000
     14429       124  SAPC      H7R           -17.0751326230      -15.6134935869       -8.7006477364  MEMB      124             0.0000000000
     14430       124  SAPC      H7S           -15.4389266471      -16.3453532348       -8.7900567923  MEMB      124             0.0000000000
     14431       124  SAPC      C28           -16.6985229657      -17.1453366867      -10.2660807216  MEMB      124             0.0000000000
     14432       124  SAPC      H8R           -17.6624030252      -17.0032947715      -10.6906942321  MEMB      124             0.0000000000
     14433       124  SAPC      C29           -16.2297050064      -18.3572695995      -10.2741111265  MEMB      124             0.0000000000
     14434       124  SAPC      H9R           -17.1754732949      -18.8725962583      -10.2653676624  MEMB      124             0.0000000000
     14435       124  SAPC      C210          -15.1967145301      -19.1291141599       -9.5286048320  MEMB      124             0.0000000000
     14436       124  SAPC      H10R          -14.4797084067      -18.3638193813       -9.3577551394  MEMB      124             0.0000000000
     14437       124  SAPC      H10S          -14.9928483903      -20.0211750375      -10.1298420595  MEMB      124             0.0000000000
     14438       124  SAPC      C211          -15.3000377391      -19.7358847315       -8.1995366643  MEMB      124             0.0000000000
     14439       124  SAPC      H11R          -16.1743388327      -19.6760479614       -7.8395057549  MEMB      124             0.0000000000
     14440       124  SAPC      C212          -14.7077318223      -20.2729887555       -7.2413952170  MEMB      124             0.0000000000
     14441       124  SAPC      H12R          -15.1900504539      -20.5874115869       -6.2681854827  MEMB      124             0.0000000000
     14442       124  SAPC      C213          -13.3374570718      -20.3669074065       -7.4602958436  MEMB      124             0.0000000000
     14443       124  SAPC      H13R          -12.9548133042      -19.8058608875       -8.3369668630  MEMB      124             0.0000000000
     14444       124  SAPC      H13S          -13.2858797633      -21.4487298990       -7.6227833184  MEMB      124             0.0000000000
     14445       124  SAPC      C214          -12.9254433749      -19.8518179448       -6.1543540799  MEMB      124             0.0000000000
     14446       124  SAPC      H14R          -12.0086670512      -19.2182016590       -6.2323382057  MEMB      124             0.0000000000
     14447       124  SAPC      C215          -13.0146884935      -20.7139165194       -5.1287714560  MEMB      124             0.0000000000
     14448       124  SAPC      H15R          -12.6442505949      -20.2195524608       -4.2285684841  MEMB      124             0.0000000000
     14449       124  SAPC      C216          -13.4587593120      -22.2739302323       -5.0245624439  MEMB      124             0.0000000000
     14450       124  SAPC      H16R          -13.6890270041      -22.7487869788       -5.9769211446  MEMB      124             0.0000000000
     14451       124  SAPC      H16S          -14.4675462920      -22.0333300728       -4.6995768446  MEMB      124             0.0000000000
     14452       124  SAPC      C217          -12.6697043724      -23.6111445272       -4.1635870138  MEMB      124             0.0000000000
     14453       124  SAPC      H17R          -11.6019249911      -23.8698666374       -4.3970616028  MEMB      124             0.0000000000
     14454       124  SAPC      H17S          -12.6389014943      -24.6028061232       -4.3088795220  MEMB      124             0.0000000000
     14455       124  SAPC      C218          -12.3002952279      -23.7630745024       -2.7199306410  MEMB      124             0.0000000000
     14456       124  SAPC      H18R          -11.8273028627      -22.7649209772       -2.8183553884  MEMB      124             0.0000000000
     14457       124  SAPC      H18S          -11.6070708234      -24.5552633660       -2.5116369610  MEMB      124             0.0000000000
     14458       124  SAPC      C219          -13.2536423870      -24.1075919501       -1.5699752957  MEMB      124             0.0000000000
     14459       124  SAPC      H19R          -13.6778881572      -25.0143551235       -1.7970256836  MEMB      124             0.0000000000
     14460       124  SAPC      H19S          -14.2704246004      -23.8918149909       -1.7517629208  MEMB      124             0.0000000000
     14461       124  SAPC      C220          -13.1958806437      -23.4294469824       -0.1773702853  MEMB      124             0.0000000000
     14462       124  SAPC      H20R          -12.8366174052      -22.4160434854       -0.0270497916  MEMB      124             0.0000000000
     14463       124  SAPC      H20S          -12.8473905108      -24.1699619285        0.4836268074  MEMB      124             0.0000000000
     14464       124  SAPC      H20T          -14.1582144352      -23.0180116494        0.1462661959  MEMB      124             0.0000000000
     14465       124  SAPC      C33           -12.8867223151      -23.3740946522      -13.9778408501  MEMB      124             0.0000000000
     14466       124  SAPC      H3X           -12.3909175238      -22.7438485737      -14.8915739301  MEMB      124             0.0000000000
     14467       124  SAPC      H3Y           -12.3148270080      -24.1839380224      -13.8583826331  MEMB      124             0.0000000000
     14468       124  SAPC      C34           -12.2510510890      -23.4748043542      -12.4909868509  MEMB      124             0.0000000000
     14469       124  SAPC      H4X           -12.3392476554      -24.2302881748      -11.9614881800  MEMB      124             0.0000000000
     14470       124  SAPC      H4Y           -13.3092714778      -22.9392977908      -12.4345160585  MEMB      124             0.0000000000
     14471       124  SAPC      C35           -10.2904040837      -22.1622819074      -11.8245321668  MEMB      124             0.0000000000
     14472       124  SAPC      H5X            -9.7649296936      -21.6050992784      -12.7478205196  MEMB      124             0.0000000000
     14473       124  SAPC      H5Y            -9.4960227342      -22.7695334389      -11.6254532235  MEMB      124             0.0000000000
     14474       124  SAPC      C36           -10.2501603287      -20.3994853073      -11.6579406804  MEMB      124             0.0000000000
     14475       124  SAPC      H6X            -9.3582345259      -20.2340070586      -11.7281497111  MEMB      124             0.0000000000
     14476       124  SAPC      H6Y           -10.5125771416      -20.8336575829      -10.7903619328  MEMB      124             0.0000000000
     14477       124  SAPC      C37           -11.1932150883      -19.0706294190      -11.8685547974  MEMB      124             0.0000000000
     14478       124  SAPC      H7X           -12.2529546162      -19.0932823088      -11.5510384137  MEMB      124             0.0000000000
     14479       124  SAPC      H7Y           -11.2740490205      -18.8773117243      -12.9465123847  MEMB      124             0.0000000000
     14480       124  SAPC      C38           -10.9399082614      -17.8603117039      -11.0808006878  MEMB      124             0.0000000000
     14481       124  SAPC      H8X           -11.0467279309      -16.9920960296      -11.7351518744  MEMB      124             0.0000000000
     14482       124  SAPC      H8Y            -9.9026370090      -17.8570774750      -10.9940677677  MEMB      124             0.0000000000
     14483       124  SAPC      C39           -11.6278579965      -17.7265360990       -9.7294327115  MEMB      124             0.0000000000
     14484       124  SAPC      H9X           -11.3623047084      -18.4669982140       -8.9468695551  MEMB      124             0.0000000000
     14485       124  SAPC      H9Y           -12.7210562280      -17.7633126625       -9.8604207399  MEMB      124             0.0000000000
     14486       124  SAPC      C310          -11.1714273023      -16.3925998232       -9.2254962983  MEMB      124             0.0000000000
     14487       124  SAPC      H10X          -11.6686859952      -15.6048529474       -9.8309808938  MEMB      124             0.0000000000
     14488       124  SAPC      H10Y          -10.0718788061      -16.3012048776       -9.4191659924  MEMB      124             0.0000000000
     14489       124  SAPC      C311          -11.4033519537      -16.1987077796       -7.7428501976  MEMB      124             0.0000000000
     14490       124  SAPC      H11X          -10.9938569996      -15.1844290274       -7.6953228410  MEMB      124             0.0000000000
     14491       124  SAPC      H11Y          -10.7473287801      -16.8594775995       -7.1353312811  MEMB      124             0.0000000000
     14492       124  SAPC      C312          -12.8615008580      -16.2700933410       -7.2449227680  MEMB      124             0.0000000000
     14493       124  SAPC      H12X          -13.2794263133      -17.2578134132       -7.5259868385  MEMB      124             0.0000000000
     14494       124  SAPC      H12Y          -13.4821117713      -15.4977217487       -7.7545579824  MEMB      124             0.0000000000
     14495       124  SAPC      C313          -12.9861719640      -16.1798842411       -5.7087088463  MEMB      124             0.0000000000
     14496       124  SAPC      H13X          -12.9926711661      -15.1080225436       -5.4164075474  MEMB      124             0.0000000000
     14497       124  SAPC      H13Y          -12.0747360980      -16.6175710367       -5.2462025610  MEMB      124             0.0000000000
     14498       124  SAPC      C314          -14.2390318500      -16.8678861174       -5.1353050554  MEMB      124             0.0000000000
     14499       124  SAPC      H14X          -14.5403723473      -17.8059696265       -5.6530510674  MEMB      124             0.0000000000
     14500       124  SAPC      H14Y          -15.0905499378      -16.1748802468       -5.2824638184  MEMB      124             0.0000000000
     14501       124  SAPC      C315          -14.1501982962      -17.1936700163       -3.6478004773  MEMB      124             0.0000000000
     14502       124  SAPC      H15X          -13.8990002061      -16.2961497045       -3.0494925264  MEMB      124             0.0000000000
     14503       124  SAPC      H15Y          -13.3924640275      -17.9888833470       -3.4423836345  MEMB      124             0.0000000000
     14504       124  SAPC      C316          -15.4749809402      -17.7553776530       -3.1975232455  MEMB      124             0.0000000000
     14505       124  SAPC      H16X          -15.4644635021      -18.7766148390       -3.6375759412  MEMB      124             0.0000000000
     14506       124  SAPC      H16Y          -16.3746982150      -17.1898231877       -3.5351203958  MEMB      124             0.0000000000
     14507       124  SAPC      C317          -15.5928757684      -17.7819642380       -1.7109854367  MEMB      124             0.0000000000
     14508       124  SAPC      H17X          -15.8985894901      -16.7729470016       -1.3585367927  MEMB      124             0.0000000000
     14509       124  SAPC      H17Y          -14.6099927987      -18.0423366729       -1.2550164292  MEMB      124             0.0000000000
     14510       124  SAPC      C318          -16.7030129486      -18.6862197119       -1.2961271695  MEMB      124             0.0000000000
     14511       124  SAPC      H18X          -16.6679915625      -18.7080022217       -0.2757474240  MEMB      124             0.0000000000
     14512       124  SAPC      H18Y          -16.5359430584      -19.7351243971       -1.3903195553  MEMB      124             0.0000000000
     14513       124  SAPC      H18Z          -17.7310694171      -18.3534560826       -1.5049044340  MEMB      124             0.0000000000
     14514       125  OSM       N               3.0763522645       20.2259277575      -20.8225215096  MEMB      125             0.0000000000
     14515       125  OSM       C15             3.6092482138       20.8531288386      -19.5619800093  MEMB      125             0.0000000000
     14516       125  OSM       H15A            4.6766798411       20.7461984952      -19.5236903267  MEMB      125             0.0000000000
     14517       125  OSM       H15B            3.1875307074       20.4004980473      -18.6743595505  MEMB      125             0.0000000000
     14518       125  OSM       H15C            3.3667225977       21.9224012672      -19.5061048800  MEMB      125             0.0000000000
     14519       125  OSM       C14             3.6838188976       18.8729463291      -20.9946987825  MEMB      125             0.0000000000
     14520       125  OSM       H14A            3.2693173618       18.3515618722      -21.8411842950  MEMB      125             0.0000000000
     14521       125  OSM       H14B            3.5104799488       18.2831488015      -20.1042203719  MEMB      125             0.0000000000
     14522       125  OSM       H14C            4.7508609568       18.9612986015      -21.1522818593  MEMB      125             0.0000000000
     14523       125  OSM       C13             1.5988578468       20.0665555883      -20.6719832487  MEMB      125             0.0000000000
     14524       125  OSM       H13A            1.1805240459       19.4270011400      -21.4425599909  MEMB      125             0.0000000000
     14525       125  OSM       H13B            1.1272389510       21.0513028503      -20.7452345184  MEMB      125             0.0000000000
     14526       125  OSM       H13C            1.3516141182       19.6478210242      -19.7002528736  MEMB      125             0.0000000000
     14527       125  OSM       C12             3.4059080623       21.0989522674      -22.0230043640  MEMB      125             0.0000000000
     14528       125  OSM       H12A            2.6711820594       20.8865140695      -22.7930123349  MEMB      125             0.0000000000
     14529       125  OSM       H12B            4.3999816917       20.8375560650      -22.3634050348  MEMB      125             0.0000000000
     14530       125  OSM       C11             3.4440858492       22.6349955084      -21.8397921982  MEMB      125             0.0000000000
     14531       125  OSM       H11A            3.5352529920       23.0922427032      -22.8492317660  MEMB      125             0.0000000000
     14532       125  OSM       H11B            4.3598432798       22.8582654059      -21.2445769250  MEMB      125             0.0000000000
     14533       125  OSM       P               2.0389065454       24.6966620431      -21.0676522859  MEMB      125             0.0000000000
     14534       125  OSM       O13             2.3067002223       25.3540259915      -22.3781684136  MEMB      125             0.0000000000
     14535       125  OSM       O14             0.6856566236       24.8914407101      -20.4977191440  MEMB      125             0.0000000000
     14536       125  OSM       O11             3.1112308859       25.1743495655      -19.9882075041  MEMB      125             0.0000000000
     14537       125  OSM       O12             2.2783805020       23.1204645969      -21.1928010285  MEMB      125             0.0000000000
     14538       125  OSM       C1S             3.2744808711       24.5346662994      -18.7050675877  MEMB      125             0.0000000000
     14539       125  OSM       H1S             4.1419242764       23.8555165525      -18.7532879236  MEMB      125             0.0000000000
     14540       125  OSM       H1T             2.3677165871       23.9591840471      -18.4030129340  MEMB      125             0.0000000000
     14541       125  OSM       NF              3.7858416311       24.7957188047      -16.2477381361  MEMB      125             0.0000000000
     14542       125  OSM       HNF             3.1375783524       25.0626083490      -15.5336256427  MEMB      125             0.0000000000
     14543       125  OSM       C2S             3.5644883384       25.4948705610      -17.4980267369  MEMB      125             0.0000000000
     14544       125  OSM       H2S             4.4873969969       26.0681254180      -17.6887965000  MEMB      125             0.0000000000
     14545       125  OSM       C3S             2.3927959959       26.4406080693      -17.3828019642  MEMB      125             0.0000000000
     14546       125  OSM       H3S             1.4741952368       25.9304935101      -17.7612126651  MEMB      125             0.0000000000
     14547       125  OSM       O3              2.6437148794       27.5758700954      -18.1713344529  MEMB      125             0.0000000000
     14548       125  OSM       HO3             3.3750787073       27.3652964774      -18.7716612119  MEMB      125             0.0000000000
     14549       125  OSM       C4S             2.1859460925       26.8962001218      -15.9496657569  MEMB      125             0.0000000000
     14550       125  OSM       H4S             2.8788515794       27.6309820164      -15.5262203937  MEMB      125             0.0000000000
     14551       125  OSM       C5S             1.2540910631       26.3310465381      -15.1645194383  MEMB      125             0.0000000000
     14552       125  OSM       H5S             0.4925040307       25.7417835607      -15.7085040847  MEMB      125             0.0000000000
     14553       125  OSM       C6S             0.8400835731       26.6334797288      -13.7458281773  MEMB      125             0.0000000000
     14554       125  OSM       H6S            -0.2611318720       26.8550747108      -13.7649978143  MEMB      125             0.0000000000
     14555       125  OSM       H6T             1.3403107721       27.4875283920      -13.2120316257  MEMB      125             0.0000000000
     14556       125  OSM       C7S             1.3824306230       25.7723515821      -12.7028736413  MEMB      125             0.0000000000
     14557       125  OSM       H7S             2.4831538182       26.0044346426      -12.7237693880  MEMB      125             0.0000000000
     14558       125  OSM       H7T             1.1299579994       24.7854092456      -13.1106216869  MEMB      125             0.0000000000
     14559       125  OSM       C8S             0.8227576769       26.0603104661      -11.3045939492  MEMB      125             0.0000000000
     14560       125  OSM       H8S            -0.2894173305       25.9840156085      -11.3472827075  MEMB      125             0.0000000000
     14561       125  OSM       H8T             1.0535145375       27.1013269861      -10.9678087998  MEMB      125             0.0000000000
     14562       125  OSM       C9S             1.4228266819       25.0061714991      -10.3618295901  MEMB      125             0.0000000000
     14563       125  OSM       H9S             2.5204977117       24.9430829419      -10.5091621326  MEMB      125             0.0000000000
     14564       125  OSM       H9T             0.9877095742       24.0301737072      -10.6715121223  MEMB      125             0.0000000000
     14565       125  OSM       C10S            1.2016107844       25.2382503984       -8.8686546958  MEMB      125             0.0000000000
     14566       125  OSM       H10S            0.1286572599       25.2645744935       -8.7152714675  MEMB      125             0.0000000000
     14567       125  OSM       H10T            1.5373096798       26.2441437207       -8.5664088759  MEMB      125             0.0000000000
     14568       125  OSM       C11S            1.8840659030       24.2377122870       -7.9352665361  MEMB      125             0.0000000000
     14569       125  OSM       H11S            1.9296928083       23.2070388550       -8.3452793679  MEMB      125             0.0000000000
     14570       125  OSM       H11T            1.3662953204       24.1701334561       -6.9422745555  MEMB      125             0.0000000000
     14571       125  OSM       C12S            3.2754855776       24.7314952502       -7.6470708285  MEMB      125             0.0000000000
     14572       125  OSM       H12S            3.3166225903       25.8486950342       -7.6245666184  MEMB      125             0.0000000000
     14573       125  OSM       H12T            3.9870876558       24.4545970476       -8.4496071795  MEMB      125             0.0000000000
     14574       125  OSM       C13S            3.6929621084       24.1197995103       -6.3468630631  MEMB      125             0.0000000000
     14575       125  OSM       H13S            3.6652686064       23.0172171511       -6.2497089220  MEMB      125             0.0000000000
     14576       125  OSM       H13T            3.2103287685       24.6060580133       -5.4574873417  MEMB      125             0.0000000000
     14577       125  OSM       C14S            5.0807227935       24.3593993346       -6.1814891923  MEMB      125             0.0000000000
     14578       125  OSM       H14S            5.1115240589       25.4757200615       -6.3396094347  MEMB      125             0.0000000000
     14579       125  OSM       H14T            5.8579165625       23.9899515390       -6.9115822800  MEMB      125             0.0000000000
     14580       125  OSM       C15S            5.3385377797       23.8677660480       -4.7318262895  MEMB      125             0.0000000000
     14581       125  OSM       H15S            5.3265674304       24.6319258178       -3.9235200823  MEMB      125             0.0000000000
     14582       125  OSM       H15T            6.3229324818       23.8458837963       -5.1476007252  MEMB      125             0.0000000000
     14583       125  OSM       C16S            5.2543140969       22.3827413925       -4.2690840992  MEMB      125             0.0000000000
     14584       125  OSM       H16S            5.4635958891       21.8173058651       -5.2027076829  MEMB      125             0.0000000000
     14585       125  OSM       H16T            4.2381536387       22.3171221404       -3.8670660053  MEMB      125             0.0000000000
     14586       125  OSM       C17S            6.2280457163       21.7663353595       -3.2110018115  MEMB      125             0.0000000000
     14587       125  OSM       H17S            6.3293550392       22.3908076146       -2.2894257324  MEMB      125             0.0000000000
     14588       125  OSM       H17T            7.1856878885       21.7259854218       -3.7705118213  MEMB      125             0.0000000000
     14589       125  OSM       C18S            6.4455414973       20.2914345073       -3.0380670506  MEMB      125             0.0000000000
     14590       125  OSM       H18S            6.2389719910       19.8256078637       -4.0187910476  MEMB      125             0.0000000000
     14591       125  OSM       H18T            5.7638788030       19.9476866806       -2.2780139566  MEMB      125             0.0000000000
     14592       125  OSM       H18U            7.5132941939       20.0624397260       -2.7568182800  MEMB      125             0.0000000000
     14593       125  OSM       C1F             4.7854639787       23.9533582712      -16.0200560159  MEMB      125             0.0000000000
     14594       125  OSM       OF              5.6262709127       23.7212858651      -16.8681936838  MEMB      125             0.0000000000
     14595       125  OSM       C2F             4.7396882180       23.2964007449      -14.6819690156  MEMB      125             0.0000000000
     14596       125  OSM       H2F             4.0781858605       22.4070749946      -14.7109080022  MEMB      125             0.0000000000
     14597       125  OSM       H2G             4.4166925282       24.0790933853      -13.9544079847  MEMB      125             0.0000000000
     14598       125  OSM       C3F             6.0519050103       22.7916652997      -14.1206343995  MEMB      125             0.0000000000
     14599       125  OSM       H3F             6.5370857610       23.6973477877      -13.7334242361  MEMB      125             0.0000000000
     14600       125  OSM       H3G             6.6750503474       22.2859799159      -14.8971664122  MEMB      125             0.0000000000
     14601       125  OSM       C4F             5.9414441579       21.8968565765      -12.8810279302  MEMB      125             0.0000000000
     14602       125  OSM       H4F             6.9140798010       21.9185209511      -12.3824741708  MEMB      125             0.0000000000
     14603       125  OSM       H4G             5.8255385156       20.8637534021      -13.2585971925  MEMB      125             0.0000000000
     14604       125  OSM       C5F             4.8926218261       22.3364633394      -11.8531512115  MEMB      125             0.0000000000
     14605       125  OSM       H5F             3.9417391875       22.4862760243      -12.4097691961  MEMB      125             0.0000000000
     14606       125  OSM       H5G             5.1696103262       23.2934124611      -11.3501423316  MEMB      125             0.0000000000
     14607       125  OSM       C6F             4.5151908578       21.3186308777      -10.7675806806  MEMB      125             0.0000000000
     14608       125  OSM       H6F             4.1279730714       20.3961350776      -11.2482105558  MEMB      125             0.0000000000
     14609       125  OSM       H6G             3.6498756519       21.7908753670      -10.2501866232  MEMB      125             0.0000000000
     14610       125  OSM       C7F             5.5881361308       20.9519293580       -9.7269152832  MEMB      125             0.0000000000
     14611       125  OSM       H7F             6.0108504138       21.8679081997       -9.2498846024  MEMB      125             0.0000000000
     14612       125  OSM       H7G             6.4263449169       20.4199935010      -10.2280595543  MEMB      125             0.0000000000
     14613       125  OSM       C8F             5.0238386242       20.0882194233       -8.5756875192  MEMB      125             0.0000000000
     14614       125  OSM       H8F             4.2065666790       20.6635085307       -8.0804840304  MEMB      125             0.0000000000
     14615       125  OSM       H8G             5.8264588380       19.9731373473       -7.8159831110  MEMB      125             0.0000000000
     14616       125  OSM       C9F             4.6083254896       18.6872248000       -8.9374006433  MEMB      125             0.0000000000
     14617       125  OSM       H9F             5.2945859645       18.1460728282       -9.6076148531  MEMB      125             0.0000000000
     14618       125  OSM       C10F            3.5275183633       18.0478715653       -8.4591474060  MEMB      125             0.0000000000
     14619       125  OSM       H10F            3.4311137849       16.9701912059       -8.6589400607  MEMB      125             0.0000000000
     14620       125  OSM       C11F            2.5252418884       18.6073450279       -7.4801155189  MEMB      125             0.0000000000
     14621       125  OSM       H11F            1.5981689354       18.0028651607       -7.5488513020  MEMB      125             0.0000000000
     14622       125  OSM       H11G            2.2711062386       19.6587737226       -7.7503131313  MEMB      125             0.0000000000
     14623       125  OSM       C12F            2.9653645328       18.5695782261       -6.0066420863  MEMB      125             0.0000000000
     14624       125  OSM       H12F            3.9368823732       19.1049706059       -5.9212541655  MEMB      125             0.0000000000
     14625       125  OSM       H12G            3.1145897230       17.5159831394       -5.6709576259  MEMB      125             0.0000000000
     14626       125  OSM       C13F            1.9782767051       19.2204583322       -5.0279753681  MEMB      125             0.0000000000
     14627       125  OSM       H13F            2.4214911540       19.0495987796       -4.0090196565  MEMB      125             0.0000000000
     14628       125  OSM       H13G            0.9853028484       18.7179662909       -5.0439643295  MEMB      125             0.0000000000
     14629       125  OSM       C14F            1.6769470814       20.7214819612       -5.2956652196  MEMB      125             0.0000000000
     14630       125  OSM       H14F            1.0707580407       20.8955654701       -6.1952442507  MEMB      125             0.0000000000
     14631       125  OSM       H14G            2.6104218643       21.3292698726       -5.2187935827  MEMB      125             0.0000000000
     14632       125  OSM       C15F            0.7653400953       21.2854389117       -4.2416678356  MEMB      125             0.0000000000
     14633       125  OSM       H15F            1.4473522437       20.7506360848       -3.5603960532  MEMB      125             0.0000000000
     14634       125  OSM       H15G           -0.1739515792       20.7193260119       -4.0703129892  MEMB      125             0.0000000000
     14635       125  OSM       C16F            0.6356543926       22.8916954535       -4.0635607852  MEMB      125             0.0000000000
     14636       125  OSM       H16F           -0.0052089709       23.1789996989       -4.9009982987  MEMB      125             0.0000000000
     14637       125  OSM       H16G            1.6664195369       23.2475363916       -4.2179566105  MEMB      125             0.0000000000
     14638       125  OSM       C17F           -0.0174497011       23.7537472025       -2.8395362017  MEMB      125             0.0000000000
     14639       125  OSM       H17F           -1.0478739270       23.3646439125       -2.5977528153  MEMB      125             0.0000000000
     14640       125  OSM       H17G           -0.1992397056       24.8340859097       -2.9491654477  MEMB      125             0.0000000000
     14641       125  OSM       C18F            0.8520137905       24.0140372059       -1.5794381929  MEMB      125             0.0000000000
     14642       125  OSM       H18F            0.2509749557       23.7162695397       -0.6766829781  MEMB      125             0.0000000000
     14643       125  OSM       H18G            1.8775965793       23.7366919209       -1.9118490276  MEMB      125             0.0000000000
     14644       125  OSM       H18H            1.3115687452       23.2483383262       -1.0234088272  MEMB      125             0.0000000000
     14645       126  CHL1      C3             15.5749041017      -17.1952163147      -17.3727699377  MEMB      126             0.0000000000
     14646       126  CHL1      H3             16.6914680301      -17.2371114560      -17.4286049378  MEMB      126             0.0000000000
     14647       126  CHL1      O3             15.0391209708      -17.1780869152      -18.6916129717  MEMB      126             0.0000000000
     14648       126  CHL1      H3'            15.2958959043      -18.0416583587      -19.0744395809  MEMB      126             0.0000000000
     14649       126  CHL1      C4             15.0693719179      -18.4265661243      -16.6196590275  MEMB      126             0.0000000000
     14650       126  CHL1      H4A            13.9682291532      -18.4994058301      -16.6674902742  MEMB      126             0.0000000000
     14651       126  CHL1      H4B            15.4574359076      -19.3558046887      -17.0887429420  MEMB      126             0.0000000000
     14652       126  CHL1      C5             15.5090829835      -18.2521772120      -15.1920755476  MEMB      126             0.0000000000
     14653       126  CHL1      C6             16.4399985174      -18.9896681945      -14.6514189733  MEMB      126             0.0000000000
     14654       126  CHL1      H6             16.7990096950      -19.8863923996      -15.1890295444  MEMB      126             0.0000000000
     14655       126  CHL1      C7             16.5027203353      -18.9673971577      -13.1788936096  MEMB      126             0.0000000000
     14656       126  CHL1      H7A            16.0186103757      -19.9005156362      -13.1479448550  MEMB      126             0.0000000000
     14657       126  CHL1      H7B            17.5406688804      -18.9368088817      -12.8237216661  MEMB      126             0.0000000000
     14658       126  CHL1      C8             15.4499340119      -18.4234775322      -12.1839063129  MEMB      126             0.0000000000
     14659       126  CHL1      H8             14.5219031417      -19.0548136720      -12.2220037724  MEMB      126             0.0000000000
     14660       126  CHL1      C14            15.9105154308      -18.2274006969      -10.6946319255  MEMB      126             0.0000000000
     14661       126  CHL1      H14            16.8766836189      -17.6954775583      -10.8140194876  MEMB      126             0.0000000000
     14662       126  CHL1      C15            16.2882686037      -19.3155314307       -9.7191425364  MEMB      126             0.0000000000
     14663       126  CHL1      H15A           15.3829401112      -19.9736493954       -9.6116546937  MEMB      126             0.0000000000
     14664       126  CHL1      H15B           17.2430330130      -19.6750307624      -10.1520619575  MEMB      126             0.0000000000
     14665       126  CHL1      C16            16.3786638828      -18.9784980663       -8.2982222257  MEMB      126             0.0000000000
     14666       126  CHL1      H16A           15.8375919219      -19.7374188918       -7.6688813158  MEMB      126             0.0000000000
     14667       126  CHL1      H16B           17.4525961867      -19.0051001686       -8.0343093510  MEMB      126             0.0000000000
     14668       126  CHL1      C17            15.7262380943      -17.5969808208       -8.4039109378  MEMB      126             0.0000000000
     14669       126  CHL1      H17            16.6240545695      -16.9558340026       -8.4739184350  MEMB      126             0.0000000000
     14670       126  CHL1      C13            15.0045328521      -17.4627833911       -9.7992588801  MEMB      126             0.0000000000
     14671       126  CHL1      C18            13.6435284261      -18.1609984029       -9.7484769991  MEMB      126             0.0000000000
     14672       126  CHL1      H18A           13.6608973935      -19.1705034304       -9.2825230750  MEMB      126             0.0000000000
     14673       126  CHL1      H18B           12.8830052342      -17.5765070346       -9.2144946096  MEMB      126             0.0000000000
     14674       126  CHL1      H18C           13.2648482614      -18.2867041485      -10.7791874782  MEMB      126             0.0000000000
     14675       126  CHL1      C12            14.9639459290      -16.1056864211      -10.5002869716  MEMB      126             0.0000000000
     14676       126  CHL1      H12A           14.3322504818      -15.4061892298       -9.9332863942  MEMB      126             0.0000000000
     14677       126  CHL1      H12B           16.0142198859      -15.7439903697      -10.5809326237  MEMB      126             0.0000000000
     14678       126  CHL1      C11            14.4669127675      -16.1735438723      -11.9589184708  MEMB      126             0.0000000000
     14679       126  CHL1      H11A           13.4057493484      -16.4889436863      -11.9486205228  MEMB      126             0.0000000000
     14680       126  CHL1      H11B           14.5766113636      -15.1831611515      -12.4380087497  MEMB      126             0.0000000000
     14681       126  CHL1      C9             15.2867362035      -17.1009495104      -12.8447347464  MEMB      126             0.0000000000
     14682       126  CHL1      H9             16.3402253923      -16.7057306501      -12.8454402921  MEMB      126             0.0000000000
     14683       126  CHL1      C10            14.8564775951      -17.1609065756      -14.3515015483  MEMB      126             0.0000000000
     14684       126  CHL1      C19            13.3071089114      -17.1715822062      -14.4161213902  MEMB      126             0.0000000000
     14685       126  CHL1      H19A           12.8762232262      -18.0351835311      -13.8823890230  MEMB      126             0.0000000000
     14686       126  CHL1      H19B           12.8585157077      -16.2526788914      -13.9891836995  MEMB      126             0.0000000000
     14687       126  CHL1      H19C           12.9823883377      -17.1928881642      -15.4685137316  MEMB      126             0.0000000000
     14688       126  CHL1      C1             15.4212030307      -15.9464066752      -15.1209763931  MEMB      126             0.0000000000
     14689       126  CHL1      H1A            14.9490574008      -15.0602739088      -14.6612576848  MEMB      126             0.0000000000
     14690       126  CHL1      H1B            16.5309118096      -15.8692829366      -15.0182063618  MEMB      126             0.0000000000
     14691       126  CHL1      C2             15.1053397407      -15.9344525364      -16.6320503015  MEMB      126             0.0000000000
     14692       126  CHL1      H2A            15.5385417009      -15.0207525242      -17.0807321808  MEMB      126             0.0000000000
     14693       126  CHL1      H2B            14.0031831210      -15.9107154502      -16.7486787927  MEMB      126             0.0000000000
     14694       126  CHL1      C20            15.0071082532      -17.3130678280       -7.1046785799  MEMB      126             0.0000000000
     14695       126  CHL1      H20            14.3222657473      -18.1795544705       -6.9295346201  MEMB      126             0.0000000000
     14696       126  CHL1      C21            14.0967624343      -16.0703176339       -7.1458206076  MEMB      126             0.0000000000
     14697       126  CHL1      H21A           13.6973312826      -15.9448981886       -6.1239865635  MEMB      126             0.0000000000
     14698       126  CHL1      H21B           13.2216975423      -16.2702522677       -7.7893503673  MEMB      126             0.0000000000
     14699       126  CHL1      H21C           14.5540774215      -15.1142483921       -7.4707788969  MEMB      126             0.0000000000
     14700       126  CHL1      C22            16.0416376068      -17.2948035349       -5.9368783182  MEMB      126             0.0000000000
     14701       126  CHL1      H22A           16.5727654532      -18.2740533896       -5.9042601032  MEMB      126             0.0000000000
     14702       126  CHL1      H22B           16.7958815711      -16.5025863661       -6.1376759901  MEMB      126             0.0000000000
     14703       126  CHL1      C23            15.4747277095      -17.0326085270       -4.5326688252  MEMB      126             0.0000000000
     14704       126  CHL1      H23A           15.0960350629      -15.9880293843       -4.5114665066  MEMB      126             0.0000000000
     14705       126  CHL1      H23B           14.6143243058      -17.7079428453       -4.3456186905  MEMB      126             0.0000000000
     14706       126  CHL1      C24            16.5038844208      -17.2581753407       -3.4085524137  MEMB      126             0.0000000000
     14707       126  CHL1      H24A           16.8168713126      -18.3281127355       -3.4072563139  MEMB      126             0.0000000000
     14708       126  CHL1      H24B           17.4230498051      -16.6560480768       -3.5757101502  MEMB      126             0.0000000000
     14709       126  CHL1      C25            15.9833347331      -16.9707184666       -1.9848384896  MEMB      126             0.0000000000
     14710       126  CHL1      H25            15.4415189710      -15.9946353368       -1.9772158137  MEMB      126             0.0000000000
     14711       126  CHL1      C26            15.0244745299      -18.0667173028       -1.5487324093  MEMB      126             0.0000000000
     14712       126  CHL1      H26A           14.6636203408      -17.9935458538       -0.4997432147  MEMB      126             0.0000000000
     14713       126  CHL1      H26B           14.1753137263      -17.9301576605       -2.2233337936  MEMB      126             0.0000000000
     14714       126  CHL1      H26C           15.4678772403      -19.0690656137       -1.7203079650  MEMB      126             0.0000000000
     14715       126  CHL1      C27            17.1686202908      -16.9544109436       -1.0346394125  MEMB      126             0.0000000000
     14716       126  CHL1      H27A           17.7049821133      -17.9199244419       -1.1726389920  MEMB      126             0.0000000000
     14717       126  CHL1      H27B           17.8308700398      -16.1025625335       -1.2980474704  MEMB      126             0.0000000000
     14718       126  CHL1      H27C           16.8450973807      -16.8842933773        0.0236645132  MEMB      126             0.0000000000
     14719       127  SAPS      N               9.4799596099       21.5873453707      -21.3875860157  MEMB      127             0.0000000000
     14720       127  SAPS      HN1             8.7218580944       21.5135378315      -22.0941556265  MEMB      127             0.0000000000
     14721       127  SAPS      HN2             9.1327494857       21.8058098387      -20.4272114797  MEMB      127             0.0000000000
     14722       127  SAPS      HN3            10.1284277184       22.3300792560      -21.7130769227  MEMB      127             0.0000000000
     14723       127  SAPS      C12            10.3363223450       20.3646654696      -21.2910509184  MEMB      127             0.0000000000
     14724       127  SAPS      H12A            9.6874199430       19.5095791526      -21.1922451414  MEMB      127             0.0000000000
     14725       127  SAPS      C13            11.1378746793       20.1033264302      -22.5817164967  MEMB      127             0.0000000000
     14726       127  SAPS      O13A           11.1946918700       21.0346155530      -23.4322888955  MEMB      127             0.0000000000
     14727       127  SAPS      O13B           11.9046853156       19.1093598878      -22.6070748338  MEMB      127             0.0000000000
     14728       127  SAPS      C11            11.2962639217       20.5914395974      -20.0615424657  MEMB      127             0.0000000000
     14729       127  SAPS      H11A           11.6974036035       21.6294357315      -20.0494030452  MEMB      127             0.0000000000
     14730       127  SAPS      H11B           12.2129368596       19.9637416788      -20.1610181569  MEMB      127             0.0000000000
     14731       127  SAPS      P               9.9837386775       21.1928030133      -17.7565453079  MEMB      127             0.0000000000
     14732       127  SAPS      O13             9.5466205148       22.4110818697      -18.4922451753  MEMB      127             0.0000000000
     14733       127  SAPS      O14             9.0013253276       20.4647204232      -16.9380094079  MEMB      127             0.0000000000
     14734       127  SAPS      O12            10.6378438522       20.2560415796      -18.8387815904  MEMB      127             0.0000000000
     14735       127  SAPS      O11            11.1991669023       21.5135424392      -16.9001876731  MEMB      127             0.0000000000
     14736       127  SAPS      C1             12.3006561897       22.1633241528      -17.4584733884  MEMB      127             0.0000000000
     14737       127  SAPS      HA             13.0688647952       21.4408391543      -17.8015680642  MEMB      127             0.0000000000
     14738       127  SAPS      HB             12.0806191986       22.9691205991      -18.1973944458  MEMB      127             0.0000000000
     14739       127  SAPS      C2             12.8295518803       22.9444470532      -16.3669598800  MEMB      127             0.0000000000
     14740       127  SAPS      HS             13.8889846981       23.0530250443      -16.6757315232  MEMB      127             0.0000000000
     14741       127  SAPS      O21            12.8902748699       22.1613602853      -15.1963711925  MEMB      127             0.0000000000
     14742       127  SAPS      C21            13.5544278922       21.0782490024      -15.1937405053  MEMB      127             0.0000000000
     14743       127  SAPS      O22            14.4396509489       20.7611648271      -15.9720565480  MEMB      127             0.0000000000
     14744       127  SAPS      C22            13.3146234184       20.4703711271      -13.8586184138  MEMB      127             0.0000000000
     14745       127  SAPS      H2R            14.3404836036       20.5286627806      -13.4479750187  MEMB      127             0.0000000000
     14746       127  SAPS      H2S            12.5348349357       21.0429770930      -13.2829206993  MEMB      127             0.0000000000
     14747       127  SAPS      C3             11.8552500859       24.2784433197      -16.2446958453  MEMB      127             0.0000000000
     14748       127  SAPS      HX             12.0940395906       24.9867489137      -17.0512885017  MEMB      127             0.0000000000
     14749       127  SAPS      HY             12.0160225691       24.9551880388      -15.4162888771  MEMB      127             0.0000000000
     14750       127  SAPS      O31            10.4627910293       24.0899028503      -16.1200207048  MEMB      127             0.0000000000
     14751       127  SAPS      C31             9.8606040281       24.4406029829      -14.9779841800  MEMB      127             0.0000000000
     14752       127  SAPS      O32            10.1893808055       25.2462216894      -14.1525646339  MEMB      127             0.0000000000
     14753       127  SAPS      C32             8.8447105271       23.5000766964      -14.6477173590  MEMB      127             0.0000000000
     14754       127  SAPS      H2X             8.5582544425       23.1406765092      -15.6523936251  MEMB      127             0.0000000000
     14755       127  SAPS      H2Y             8.1618682306       24.2220060779      -14.1923243764  MEMB      127             0.0000000000
     14756       127  SAPS      C23            12.7978122962       19.1117248667      -13.6554024383  MEMB      127             0.0000000000
     14757       127  SAPS      H3R            13.2932115069       18.5130558244      -14.4399837714  MEMB      127             0.0000000000
     14758       127  SAPS      H3S            11.7169384526       19.2747633561      -13.7665312283  MEMB      127             0.0000000000
     14759       127  SAPS      C24            12.9319534623       18.6426147460      -12.2628462410  MEMB      127             0.0000000000
     14760       127  SAPS      H4R            12.3007030975       17.7914513885      -12.0247687858  MEMB      127             0.0000000000
     14761       127  SAPS      H4S            12.6860849199       19.4927163134      -11.5332054899  MEMB      127             0.0000000000
     14762       127  SAPS      C25            14.2515436903       18.0923260348      -12.3932844967  MEMB      127             0.0000000000
     14763       127  SAPS      H5R            14.7233025711       17.1785464917      -12.7504056891  MEMB      127             0.0000000000
     14764       127  SAPS      C26            14.5613191001       18.3956076580      -11.2655688013  MEMB      127             0.0000000000
     14765       127  SAPS      H6R            15.8428029221       18.1558081482      -11.4422289606  MEMB      127             0.0000000000
     14766       127  SAPS      C27            13.8141869263       19.3576268268       -9.6049521064  MEMB      127             0.0000000000
     14767       127  SAPS      H7R            13.2188633845       20.2260856242       -9.6252822139  MEMB      127             0.0000000000
     14768       127  SAPS      H7S            14.5782245814       20.1444045814       -9.0244373157  MEMB      127             0.0000000000
     14769       127  SAPS      C28            13.6326297334       19.2941237995       -7.9440220295  MEMB      127             0.0000000000
     14770       127  SAPS      H8R            13.9420071868       18.4503772246       -7.3114842874  MEMB      127             0.0000000000
     14771       127  SAPS      C29            13.6157806516       20.1140921967       -6.8218468679  MEMB      127             0.0000000000
     14772       127  SAPS      H9R            14.0424105188       19.6757145421       -5.8473778914  MEMB      127             0.0000000000
     14773       127  SAPS      C210           13.7448807644       21.5307498978       -6.7473269948  MEMB      127             0.0000000000
     14774       127  SAPS      H10R           13.2016696702       21.8422573990       -7.6362802152  MEMB      127             0.0000000000
     14775       127  SAPS      H10S           14.7966984572       21.8787349685       -6.6763594236  MEMB      127             0.0000000000
     14776       127  SAPS      C211           12.9149067134       21.6999809556       -5.5392659563  MEMB      127             0.0000000000
     14777       127  SAPS      H11R           12.3048775407       20.8956425296       -5.1083562030  MEMB      127             0.0000000000
     14778       127  SAPS      C212           12.7069636588       22.8724433425       -5.0699683195  MEMB      127             0.0000000000
     14779       127  SAPS      H12R           12.1402253680       22.9854661305       -4.1646766571  MEMB      127             0.0000000000
     14780       127  SAPS      C213           13.2638819939       24.0523155473       -5.6797741523  MEMB      127             0.0000000000
     14781       127  SAPS      H13R           13.0361225403       24.2057600174       -6.7498408196  MEMB      127             0.0000000000
     14782       127  SAPS      H13S           14.2905127789       23.9392721060       -5.6342746422  MEMB      127             0.0000000000
     14783       127  SAPS      C214           12.8931208208       25.1696106771       -4.8383181947  MEMB      127             0.0000000000
     14784       127  SAPS      H14R           12.2562714645       25.8106401753       -5.3882750104  MEMB      127             0.0000000000
     14785       127  SAPS      C215           13.3084559007       25.6355084755       -3.6532040178  MEMB      127             0.0000000000
     14786       127  SAPS      H15R           13.0190655905       26.6177322328       -3.4314362865  MEMB      127             0.0000000000
     14787       127  SAPS      C216           14.2995961553       25.2696897492       -2.6489521641  MEMB      127             0.0000000000
     14788       127  SAPS      H16R           15.0968790468       26.0275924834       -2.3651898776  MEMB      127             0.0000000000
     14789       127  SAPS      H16S           14.5873119179       24.6581002798       -3.4852391397  MEMB      127             0.0000000000
     14790       127  SAPS      C217           14.3924355628       24.1083710067       -1.7389202511  MEMB      127             0.0000000000
     14791       127  SAPS      H17R           14.1308502318       23.2425073292       -2.3955500273  MEMB      127             0.0000000000
     14792       127  SAPS      H17S           13.6754888573       24.5799756153       -1.0849951093  MEMB      127             0.0000000000
     14793       127  SAPS      C218           15.6149250346       23.7914812479       -0.8781173528  MEMB      127             0.0000000000
     14794       127  SAPS      H18R           16.1182777785       24.6634443157       -0.4334288204  MEMB      127             0.0000000000
     14795       127  SAPS      H18S           16.3238948273       23.2272724038       -1.4713308478  MEMB      127             0.0000000000
     14796       127  SAPS      C219           15.3725605767       22.6098021967       -0.0248746308  MEMB      127             0.0000000000
     14797       127  SAPS      H19R           14.3914782163       22.8523352154        0.4083763161  MEMB      127             0.0000000000
     14798       127  SAPS      H19S           16.1645572786       22.5018349768        0.7257169708  MEMB      127             0.0000000000
     14799       127  SAPS      C220           15.3644553481       21.3557858695       -0.8915067231  MEMB      127             0.0000000000
     14800       127  SAPS      H20R           16.3720740767       21.0641337377       -1.2348692531  MEMB      127             0.0000000000
     14801       127  SAPS      H20S           14.7352864898       21.4945276275       -1.7872484006  MEMB      127             0.0000000000
     14802       127  SAPS      H20T           14.9482424502       20.5337287171       -0.3284763475  MEMB      127             0.0000000000
     14803       127  SAPS      C33             9.2191157334       22.3139093061      -13.7083689781  MEMB      127             0.0000000000
     14804       127  SAPS      H3X            10.1276790753       21.8202736887      -14.1141851500  MEMB      127             0.0000000000
     14805       127  SAPS      H3Y             8.4069172782       21.5823611915      -13.8785822606  MEMB      127             0.0000000000
     14806       127  SAPS      C34             9.3710849984       22.5793180190      -12.1807213538  MEMB      127             0.0000000000
     14807       127  SAPS      H4X             8.4053309517       22.7739001227      -11.6928482121  MEMB      127             0.0000000000
     14808       127  SAPS      H4Y             9.9438497408       23.5127645365      -12.0267087432  MEMB      127             0.0000000000
     14809       127  SAPS      C35            10.0431370294       21.4092672469      -11.4239629347  MEMB      127             0.0000000000
     14810       127  SAPS      H5X            10.9563374748       21.1474313495      -11.9971715293  MEMB      127             0.0000000000
     14811       127  SAPS      H5Y             9.3845844688       20.5169039730      -11.4302837076  MEMB      127             0.0000000000
     14812       127  SAPS      C36            10.4847304776       21.6892671595       -9.9736011618  MEMB      127             0.0000000000
     14813       127  SAPS      H6X            10.8791990866       22.7250713061       -9.8844943905  MEMB      127             0.0000000000
     14814       127  SAPS      H6Y            11.3399097121       21.0126813635       -9.7567026787  MEMB      127             0.0000000000
     14815       127  SAPS      C37             9.4025151962       21.4122026319       -8.9153142076  MEMB      127             0.0000000000
     14816       127  SAPS      H7X             8.4760181087       21.9499910833       -9.1970596664  MEMB      127             0.0000000000
     14817       127  SAPS      H7Y             9.7458473173       21.8087896039       -7.9349559935  MEMB      127             0.0000000000
     14818       127  SAPS      C38             9.0776541404       19.9277797778       -8.7005475587  MEMB      127             0.0000000000
     14819       127  SAPS      H8X             9.2630660330       19.3690391579       -9.6434662728  MEMB      127             0.0000000000
     14820       127  SAPS      H8Y             8.0103738191       19.7910975604       -8.4186858315  MEMB      127             0.0000000000
     14821       127  SAPS      C39             9.8949034555       19.3495171375       -7.5493898360  MEMB      127             0.0000000000
     14822       127  SAPS      H9X             9.5939152881       19.8269938687       -6.5875039744  MEMB      127             0.0000000000
     14823       127  SAPS      H9Y            10.9549925283       19.6269546925       -7.7443223154  MEMB      127             0.0000000000
     14824       127  SAPS      C310            9.7611954796       17.8289730234       -7.4620290682  MEMB      127             0.0000000000
     14825       127  SAPS      H10X           10.2951185150       17.3757967218       -8.3292144875  MEMB      127             0.0000000000
     14826       127  SAPS      H10Y            8.7229316885       17.4695129525       -7.3763334182  MEMB      127             0.0000000000
     14827       127  SAPS      C311           10.3903132256       17.2474091010       -6.2602473965  MEMB      127             0.0000000000
     14828       127  SAPS      H11X           10.3378521520       16.1342491253       -6.2410278838  MEMB      127             0.0000000000
     14829       127  SAPS      H11Y            9.9828075533       17.6636278475       -5.3034485228  MEMB      127             0.0000000000
     14830       127  SAPS      C312           11.7842139099       17.6346836747       -6.3020620347  MEMB      127             0.0000000000
     14831       127  SAPS      H12X           11.9790753212       18.6789352513       -6.3080059931  MEMB      127             0.0000000000
     14832       127  SAPS      H12Y           12.3851672654       17.0401006328       -7.0816641821  MEMB      127             0.0000000000
     14833       127  SAPS      C313           12.1535072815       17.4920580391       -4.8886029061  MEMB      127             0.0000000000
     14834       127  SAPS      H13X           13.1442747464       17.4483618658       -5.3927030888  MEMB      127             0.0000000000
     14835       127  SAPS      H13Y           11.6817864110       16.5189545213       -4.6509072664  MEMB      127             0.0000000000
     14836       127  SAPS      C314           12.3816263717       18.4002996348       -3.5839228022  MEMB      127             0.0000000000
     14837       127  SAPS      H14X           11.3464392119       18.4751792729       -3.2732858772  MEMB      127             0.0000000000
     14838       127  SAPS      H14Y           13.1169914154       19.2270204118       -3.7732432152  MEMB      127             0.0000000000
     14839       127  SAPS      C315           12.9202279218       17.8829439327       -2.1716510260  MEMB      127             0.0000000000
     14840       127  SAPS      H15X           13.9661565953       18.0564125137       -2.3921544256  MEMB      127             0.0000000000
     14841       127  SAPS      H15Y           12.7386986777       16.8492713568       -1.7726714141  MEMB      127             0.0000000000
     14842       127  SAPS      C316           13.2835568926       18.5812567556       -0.9573405433  MEMB      127             0.0000000000
     14843       127  SAPS      H16X           13.6749391247       19.5475017871       -1.3113968966  MEMB      127             0.0000000000
     14844       127  SAPS      H16Y           14.1144128173       17.9564272818       -0.4747861250  MEMB      127             0.0000000000
     14845       127  SAPS      C317           11.9596826139       18.4785223539       -0.2959776328  MEMB      127             0.0000000000
     14846       127  SAPS      H17X           11.1564736215       18.6314759923       -1.0573014379  MEMB      127             0.0000000000
     14847       127  SAPS      H17Y           11.9539552999       19.3326171080        0.3801567735  MEMB      127             0.0000000000
     14848       127  SAPS      C318           11.7200993677       17.1475585874        0.4211363392  MEMB      127             0.0000000000
     14849       127  SAPS      H18X           11.4373683139       16.3132997281       -0.2719669804  MEMB      127             0.0000000000
     14850       127  SAPS      H18Y           10.8810043002       17.3213431292        1.1307224669  MEMB      127             0.0000000000
     14851       127  SAPS      H18Z           12.6160602286       16.7906829397        0.9366059620  MEMB      127             0.0000000000
     14852       128  CHL1      C3             22.9187695832        4.8765168777      -17.3204560499  MEMB      128             0.0000000000
     14853       128  CHL1      H3             22.8841231083        3.7909092656      -17.0742266121  MEMB      128             0.0000000000
     14854       128  CHL1      O3             22.9288500756        5.0584710138      -18.7236918439  MEMB      128             0.0000000000
     14855       128  CHL1      H3'            23.1662712633        5.9933970334      -18.7716382159  MEMB      128             0.0000000000
     14856       128  CHL1      C4             21.6999946854        5.5855232665      -16.7439167383  MEMB      128             0.0000000000
     14857       128  CHL1      H4A            21.7019589905        6.6722700315      -16.9643609312  MEMB      128             0.0000000000
     14858       128  CHL1      H4B            20.8036640160        5.1179697290      -17.2221774871  MEMB      128             0.0000000000
     14859       128  CHL1      C5             21.7317123556        5.4526349711      -15.2546183023  MEMB      128             0.0000000000
     14860       128  CHL1      C6             20.7220163122        4.9372372799      -14.6350273246  MEMB      128             0.0000000000
     14861       128  CHL1      H6             19.7878071312        4.6308169403      -15.1456933466  MEMB      128             0.0000000000
     14862       128  CHL1      C7             20.8024644843        4.8700537502      -13.1649071703  MEMB      128             0.0000000000
     14863       128  CHL1      H7A            19.8080241194        5.2393566381      -12.9637910548  MEMB      128             0.0000000000
     14864       128  CHL1      H7B            21.0096329606        3.8413586534      -12.7948965927  MEMB      128             0.0000000000
     14865       128  CHL1      C8             21.7711967100        5.5589167961      -12.2945851598  MEMB      128             0.0000000000
     14866       128  CHL1      H8             21.4513877430        6.6120295882      -12.3662757860  MEMB      128             0.0000000000
     14867       128  CHL1      C14            21.8197981595        5.0059630027      -10.8437063674  MEMB      128             0.0000000000
     14868       128  CHL1      H14            22.0976181921        3.9242761801      -10.9295743610  MEMB      128             0.0000000000
     14869       128  CHL1      C15            20.6608348037        4.9905024242       -9.8457338762  MEMB      128             0.0000000000
     14870       128  CHL1      H15A           19.9720851309        5.8390279402      -10.0630426713  MEMB      128             0.0000000000
     14871       128  CHL1      H15B           20.2162480631        3.9652674024       -9.8702146152  MEMB      128             0.0000000000
     14872       128  CHL1      C16            21.0515562161        4.9162118641       -8.4470427090  MEMB      128             0.0000000000
     14873       128  CHL1      H16A           20.4952162006        5.7045654981       -7.8912402049  MEMB      128             0.0000000000
     14874       128  CHL1      H16B           20.8011894767        3.9073789638       -8.0137568720  MEMB      128             0.0000000000
     14875       128  CHL1      C17            22.5310192452        5.1789839510       -8.6018269117  MEMB      128             0.0000000000
     14876       128  CHL1      H17            22.9904902668        4.1629011266       -8.6208723033  MEMB      128             0.0000000000
     14877       128  CHL1      C13            22.7990919911        5.7608567708      -10.0351409280  MEMB      128             0.0000000000
     14878       128  CHL1      C18            22.4028540036        7.2572879488      -10.0752374239  MEMB      128             0.0000000000
     14879       128  CHL1      H18A           21.3158736673        7.4132364021       -9.9244873959  MEMB      128             0.0000000000
     14880       128  CHL1      H18B           22.9343513960        7.7727775070       -9.2643165573  MEMB      128             0.0000000000
     14881       128  CHL1      H18C           22.6882213924        7.7525631537      -11.0278143661  MEMB      128             0.0000000000
     14882       128  CHL1      C12            24.1694552145        5.4979370840      -10.6722694638  MEMB      128             0.0000000000
     14883       128  CHL1      H12A           24.8949800569        6.1895946247      -10.2147130630  MEMB      128             0.0000000000
     14884       128  CHL1      H12B           24.4618101064        4.4440727198      -10.4831646813  MEMB      128             0.0000000000
     14885       128  CHL1      C11            24.2597092653        5.7613046099      -12.1882141199  MEMB      128             0.0000000000
     14886       128  CHL1      H11A           24.3482479276        6.8553831888      -12.3217189139  MEMB      128             0.0000000000
     14887       128  CHL1      H11B           25.1754514050        5.2500698083      -12.5567823432  MEMB      128             0.0000000000
     14888       128  CHL1      C9             23.0673850264        5.2686506225      -13.0089510057  MEMB      128             0.0000000000
     14889       128  CHL1      H9             23.1971478358        4.1487749952      -13.0558992327  MEMB      128             0.0000000000
     14890       128  CHL1      C10            23.0087210986        5.8095848399      -14.4707942370  MEMB      128             0.0000000000
     14891       128  CHL1      C19            23.1037621320        7.3540348146      -14.4213565413  MEMB      128             0.0000000000
     14892       128  CHL1      H19A           22.5947566671        7.8066494342      -13.5500997504  MEMB      128             0.0000000000
     14893       128  CHL1      H19B           24.1694342460        7.6465052315      -14.3531587307  MEMB      128             0.0000000000
     14894       128  CHL1      H19C           22.6881947486        7.8169751555      -15.3362076206  MEMB      128             0.0000000000
     14895       128  CHL1      C1             24.2409383155        5.2765953980      -15.2207173621  MEMB      128             0.0000000000
     14896       128  CHL1      H1A            25.1151389903        5.8072983364      -14.7845313739  MEMB      128             0.0000000000
     14897       128  CHL1      H1B            24.3449129689        4.1865385133      -15.0265763289  MEMB      128             0.0000000000
     14898       128  CHL1      C2             24.1903670520        5.4901866955      -16.7384393845  MEMB      128             0.0000000000
     14899       128  CHL1      H2A            25.0964529706        5.0451117187      -17.1980831625  MEMB      128             0.0000000000
     14900       128  CHL1      H2B            24.1640005303        6.5792205635      -16.9765917504  MEMB      128             0.0000000000
     14901       128  CHL1      C20            22.9124659972        5.9129046515       -7.3404284525  MEMB      128             0.0000000000
     14902       128  CHL1      H20            22.4849576515        6.9439183346       -7.3290320091  MEMB      128             0.0000000000
     14903       128  CHL1      C21            24.4280350314        6.0175826607       -7.3585305639  MEMB      128             0.0000000000
     14904       128  CHL1      H21A           24.8519830774        6.2616276140       -6.3663401277  MEMB      128             0.0000000000
     14905       128  CHL1      H21B           24.7083780641        6.8073552873       -8.0862051473  MEMB      128             0.0000000000
     14906       128  CHL1      H21C           24.8180380756        5.0380472495       -7.6998996551  MEMB      128             0.0000000000
     14907       128  CHL1      C22            22.3585834823        5.1015949575       -6.1347054492  MEMB      128             0.0000000000
     14908       128  CHL1      H22A           21.2492206221        4.9962836003       -6.1000673904  MEMB      128             0.0000000000
     14909       128  CHL1      H22B           22.8541941614        4.1208000626       -6.0959165272  MEMB      128             0.0000000000
     14910       128  CHL1      C23            22.6293667557        5.6493901223       -4.8060789015  MEMB      128             0.0000000000
     14911       128  CHL1      H23A           22.3078501438        4.9480834556       -3.9863893471  MEMB      128             0.0000000000
     14912       128  CHL1      H23B           23.7318409128        5.7629293443       -4.7223590279  MEMB      128             0.0000000000
     14913       128  CHL1      C24            21.8263680286        6.8738174861       -4.6607834923  MEMB      128             0.0000000000
     14914       128  CHL1      H24A           22.0362181229        7.7372795728       -5.2897108311  MEMB      128             0.0000000000
     14915       128  CHL1      H24B           20.7137320036        6.9301177263       -4.7134999200  MEMB      128             0.0000000000
     14916       128  CHL1      C25            22.0721659140        7.0576507826       -3.2757716890  MEMB      128             0.0000000000
     14917       128  CHL1      H25            21.7066155630        8.1461345185       -3.4057542483  MEMB      128             0.0000000000
     14918       128  CHL1      C26            20.8538285905        6.6514139815       -2.5802561686  MEMB      128             0.0000000000
     14919       128  CHL1      H26A           19.8001191226        6.8685679192       -2.7719540760  MEMB      128             0.0000000000
     14920       128  CHL1      H26B           21.1732306053        5.8478173459       -1.8964884058  MEMB      128             0.0000000000
     14921       128  CHL1      H26C           20.7246862863        7.6152319012       -2.0472492659  MEMB      128             0.0000000000
     14922       128  CHL1      C27            23.5506839218        6.5450231185       -2.6376909733  MEMB      128             0.0000000000
     14923       128  CHL1      H27A           24.0792539614        7.3903869902       -2.3103882949  MEMB      128             0.0000000000
     14924       128  CHL1      H27B           23.7951782468        5.7441001096       -1.9907931997  MEMB      128             0.0000000000
     14925       128  CHL1      H27C           24.6259939096        6.9088643162       -2.7082289023  MEMB      128             0.0000000000
     14926       129  SAPS      N              21.8775535945        8.9096919871      -21.1563299503  MEMB      129             0.0000000000
     14927       129  SAPS      HN1            21.8975023748        7.8907880528      -20.9361342529  MEMB      129             0.0000000000
     14928       129  SAPS      HN2            21.2088282653        9.1243844104      -21.9148330444  MEMB      129             0.0000000000
     14929       129  SAPS      HN3            22.8447036777        9.2027676909      -21.4060024424  MEMB      129             0.0000000000
     14930       129  SAPS      C12            21.4702305686        9.5718286884      -19.8496795342  MEMB      129             0.0000000000
     14931       129  SAPS      H12A           20.5625807076        9.1121537434      -19.5070452603  MEMB      129             0.0000000000
     14932       129  SAPS      C13            22.4862714419        9.3435815014      -18.7289205889  MEMB      129             0.0000000000
     14933       129  SAPS      O13A           23.5354437076        8.7212789712      -19.0246303380  MEMB      129             0.0000000000
     14934       129  SAPS      O13B           22.2848885478        9.8834033254      -17.6140766935  MEMB      129             0.0000000000
     14935       129  SAPS      C11            21.1782881161       11.0815420059      -20.0120191273  MEMB      129             0.0000000000
     14936       129  SAPS      H11A           22.0802315317       11.5711951402      -20.4485842614  MEMB      129             0.0000000000
     14937       129  SAPS      H11B           21.0334270881       11.5405237981      -18.9973154672  MEMB      129             0.0000000000
     14938       129  SAPS      P              19.1434565840       12.5768464161      -20.7849875929  MEMB      129             0.0000000000
     14939       129  SAPS      O13            20.0439349394       13.7126526133      -21.0125873750  MEMB      129             0.0000000000
     14940       129  SAPS      O14            17.9541765281       12.3914230356      -21.6598378422  MEMB      129             0.0000000000
     14941       129  SAPS      O12            20.0118331282       11.2301644644      -20.8358626397  MEMB      129             0.0000000000
     14942       129  SAPS      O11            18.5711950021       12.6054024409      -19.2835164359  MEMB      129             0.0000000000
     14943       129  SAPS      C1             18.0098733573       11.4090467642      -18.7201822272  MEMB      129             0.0000000000
     14944       129  SAPS      HA             16.9836599557       11.2571441485      -19.0803165922  MEMB      129             0.0000000000
     14945       129  SAPS      HB             18.5962983108       10.5092312015      -18.9955542460  MEMB      129             0.0000000000
     14946       129  SAPS      C2             17.9889434145       11.4162563963      -17.1726253856  MEMB      129             0.0000000000
     14947       129  SAPS      HS             17.3299105575       12.2683123096      -16.8745209676  MEMB      129             0.0000000000
     14948       129  SAPS      O21            19.3249673224       11.5505764304      -16.7401615712  MEMB      129             0.0000000000
     14949       129  SAPS      C21            19.4600310700       12.3608656606      -15.7586458508  MEMB      129             0.0000000000
     14950       129  SAPS      O22            18.5742788545       13.0225645256      -15.2316274287  MEMB      129             0.0000000000
     14951       129  SAPS      C22            20.9047017530       12.3402042734      -15.3671632634  MEMB      129             0.0000000000
     14952       129  SAPS      H2R            21.4069273302       11.3789780010      -15.4551281932  MEMB      129             0.0000000000
     14953       129  SAPS      H2S            21.4477766143       12.9945670771      -16.1014002613  MEMB      129             0.0000000000
     14954       129  SAPS      C3             17.4566765846       10.0906793633      -16.5703887522  MEMB      129             0.0000000000
     14955       129  SAPS      HX             18.0426840602        9.2497084671      -16.9843581133  MEMB      129             0.0000000000
     14956       129  SAPS      HY             16.3996690402        9.9768867677      -16.9140968042  MEMB      129             0.0000000000
     14957       129  SAPS      O31            17.6611256481        9.9832360093      -15.1431303930  MEMB      129             0.0000000000
     14958       129  SAPS      C31            16.6076418477       10.4515944615      -14.4913809408  MEMB      129             0.0000000000
     14959       129  SAPS      O32            15.5961111835       10.7683612735      -15.0724694808  MEMB      129             0.0000000000
     14960       129  SAPS      C32            16.7741957201       10.0251823951      -13.0430055109  MEMB      129             0.0000000000
     14961       129  SAPS      H2X            17.7886471443        9.6653563071      -12.8529421341  MEMB      129             0.0000000000
     14962       129  SAPS      H2Y            16.0744597216        9.1860985882      -12.8756201432  MEMB      129             0.0000000000
     14963       129  SAPS      C23            21.0016703553       12.7034209132      -13.8970080406  MEMB      129             0.0000000000
     14964       129  SAPS      H3R            20.4623636112       12.3037157344      -13.0461504568  MEMB      129             0.0000000000
     14965       129  SAPS      H3S            20.3029552316       13.5710045965      -13.8608874331  MEMB      129             0.0000000000
     14966       129  SAPS      C24            22.4939215732       12.7907425784      -13.5069320140  MEMB      129             0.0000000000
     14967       129  SAPS      H4R            22.5751074459       13.2523715506      -12.4904627458  MEMB      129             0.0000000000
     14968       129  SAPS      H4S            23.0567724810       13.4206431820      -14.2354420179  MEMB      129             0.0000000000
     14969       129  SAPS      C25            23.4178545141       11.7119882321      -13.5316489840  MEMB      129             0.0000000000
     14970       129  SAPS      H5R            24.0473046592       11.7131485672      -14.4459394511  MEMB      129             0.0000000000
     14971       129  SAPS      C26            23.5343843080       10.9955647807      -12.4223888077  MEMB      129             0.0000000000
     14972       129  SAPS      H6R            24.1584681959       10.1175750646      -12.5324861614  MEMB      129             0.0000000000
     14973       129  SAPS      C27            22.7479456753       11.2227535521      -11.1150185875  MEMB      129             0.0000000000
     14974       129  SAPS      H7R            22.6599910161       12.3044050172      -10.8173592457  MEMB      129             0.0000000000
     14975       129  SAPS      H7S            23.3561582758       10.8260125431      -10.2861979559  MEMB      129             0.0000000000
     14976       129  SAPS      C28            21.3615876777       10.5908022178      -11.0758369678  MEMB      129             0.0000000000
     14977       129  SAPS      H8R            21.0836325672       10.0613841058      -11.9852907446  MEMB      129             0.0000000000
     14978       129  SAPS      C29            20.4591793636       10.5708186918      -10.0692691555  MEMB      129             0.0000000000
     14979       129  SAPS      H9R            19.4511263122       10.1631571815      -10.2184977447  MEMB      129             0.0000000000
     14980       129  SAPS      C210           20.6472113048       11.1910172530       -8.7377881454  MEMB      129             0.0000000000
     14981       129  SAPS      H10R           21.6882246720       11.1118886825       -8.3844811747  MEMB      129             0.0000000000
     14982       129  SAPS      H10S           19.9364035806       10.9034577506       -7.9272936489  MEMB      129             0.0000000000
     14983       129  SAPS      C211           20.4343602764       12.5805156005       -8.9735280580  MEMB      129             0.0000000000
     14984       129  SAPS      H11R           19.9561641886       13.0327288246       -9.8758020900  MEMB      129             0.0000000000
     14985       129  SAPS      C212           20.7843660948       13.3520411556       -8.0355315011  MEMB      129             0.0000000000
     14986       129  SAPS      H12R           20.1499802773       14.1384803118       -8.3783355286  MEMB      129             0.0000000000
     14987       129  SAPS      C213           21.4031804296       13.3183769724       -6.6319099891  MEMB      129             0.0000000000
     14988       129  SAPS      H13R           20.9164211520       12.5429436307       -6.0356928479  MEMB      129             0.0000000000
     14989       129  SAPS      H13S           21.1514426677       14.1465787227       -5.9468983916  MEMB      129             0.0000000000
     14990       129  SAPS      C214           22.8981420379       13.4463261086       -6.6265901190  MEMB      129             0.0000000000
     14991       129  SAPS      H14R           23.3513925636       13.8799726589       -7.5296394656  MEMB      129             0.0000000000
     14992       129  SAPS      C215           23.6987164640       13.2710782391       -5.5781916472  MEMB      129             0.0000000000
     14993       129  SAPS      H15R           24.7772956315       13.2940466509       -5.7782822178  MEMB      129             0.0000000000
     14994       129  SAPS      C216           23.2975809115       12.9031596352       -4.1753988284  MEMB      129             0.0000000000
     14995       129  SAPS      H16R           22.1973422570       12.8393749777       -3.9859972672  MEMB      129             0.0000000000
     14996       129  SAPS      H16S           23.7307394681       13.6175192247       -3.4555784069  MEMB      129             0.0000000000
     14997       129  SAPS      C217           23.8735468910       11.5527425870       -3.8933730589  MEMB      129             0.0000000000
     14998       129  SAPS      H17R           23.7949030929       11.3432339436       -2.7965840026  MEMB      129             0.0000000000
     14999       129  SAPS      H17S           24.9514940680       11.4657547189       -4.1778879429  MEMB      129             0.0000000000
     15000       129  SAPS      C218           23.1291895678       10.5444514052       -4.7233388984  MEMB      129             0.0000000000
     15001       129  SAPS      H18R           22.9682489397       10.6429891004       -5.7915354680  MEMB      129             0.0000000000
     15002       129  SAPS      H18S           22.1160629141       10.3502270579       -4.2377274975  MEMB      129             0.0000000000
     15003       129  SAPS      C219           24.1015507313        9.4384125683       -4.9662706995  MEMB      129             0.0000000000
     15004       129  SAPS      H19R           25.2191254475        9.3576397899       -4.8557085111  MEMB      129             0.0000000000
     15005       129  SAPS      H19S           23.5931017589        8.6205978001       -5.5342973971  MEMB      129             0.0000000000
     15006       129  SAPS      C220           24.1682066579        8.9680151534       -3.7457652889  MEMB      129             0.0000000000
     15007       129  SAPS      H20R           24.7322941851        9.3165780781       -2.8536652255  MEMB      129             0.0000000000
     15008       129  SAPS      H20S           24.4055968960        7.9199394784       -4.0983883283  MEMB      129             0.0000000000
     15009       129  SAPS      H20T           23.1507719340        9.0611817733       -3.4110265795  MEMB      129             0.0000000000
     15010       129  SAPS      C33            16.5322372039       11.0042290720      -11.9297455051  MEMB      129             0.0000000000
     15011       129  SAPS      H3X            15.5331256627       11.4078953237      -12.1173326499  MEMB      129             0.0000000000
     15012       129  SAPS      H3Y            17.1796179819       11.8939964053      -11.9246156093  MEMB      129             0.0000000000
     15013       129  SAPS      C34            16.6691611450       10.1959942715      -10.6230053325  MEMB      129             0.0000000000
     15014       129  SAPS      H4X            17.2675805650        9.3192981025      -10.6578667626  MEMB      129             0.0000000000
     15015       129  SAPS      H4Y            15.8787680342        9.5361296741      -10.3948378062  MEMB      129             0.0000000000
     15016       129  SAPS      C35            16.8111431720       11.0990516972       -9.4730059361  MEMB      129             0.0000000000
     15017       129  SAPS      H5X            15.8812709169       11.6846078870       -9.5444837803  MEMB      129             0.0000000000
     15018       129  SAPS      H5Y            17.6571730539       11.6237849265       -9.8995441522  MEMB      129             0.0000000000
     15019       129  SAPS      C36            17.1537990454       10.6280435168       -8.0524905600  MEMB      129             0.0000000000
     15020       129  SAPS      H6X            17.9622157686        9.9327278716       -8.0756604013  MEMB      129             0.0000000000
     15021       129  SAPS      H6Y            16.6933553433        9.7081621639       -7.8638628352  MEMB      129             0.0000000000
     15022       129  SAPS      C37            16.8185365062       11.5241421454       -6.8219824304  MEMB      129             0.0000000000
     15023       129  SAPS      H7X            15.7040529104       11.8576363272       -6.7719498268  MEMB      129             0.0000000000
     15024       129  SAPS      H7Y            17.4756128428       12.3719649749       -6.9634155898  MEMB      129             0.0000000000
     15025       129  SAPS      C38            17.2751883795       11.0294824503       -5.4928302634  MEMB      129             0.0000000000
     15026       129  SAPS      H8X            17.5943626149        9.9797492757       -5.4211988532  MEMB      129             0.0000000000
     15027       129  SAPS      H8Y            16.2015259439       11.1636853636       -5.1676039846  MEMB      129             0.0000000000
     15028       129  SAPS      C39            17.6173672515       11.7178269079       -4.2981967090  MEMB      129             0.0000000000
     15029       129  SAPS      H9X            16.8995970139       12.6000207299       -4.3757537505  MEMB      129             0.0000000000
     15030       129  SAPS      H9Y            18.5685002324       12.1316608437       -4.4486446450  MEMB      129             0.0000000000
     15031       129  SAPS      C310           17.7277121460       10.6934476010       -3.1013401324  MEMB      129             0.0000000000
     15032       129  SAPS      H10X           18.0793317630        9.6592164112       -3.2211133311  MEMB      129             0.0000000000
     15033       129  SAPS      H10Y           16.8754054471       10.2560276813       -2.6620223118  MEMB      129             0.0000000000
     15034       129  SAPS      C311           18.0150391241       11.3829840342       -1.8134509038  MEMB      129             0.0000000000
     15035       129  SAPS      H11X           17.5719949674       12.4033883903       -1.8209826451  MEMB      129             0.0000000000
     15036       129  SAPS      H11Y           19.0976845876       11.3975492397       -1.9622403444  MEMB      129             0.0000000000
     15037       129  SAPS      C312           17.4543672884       10.6572863538       -0.5797286726  MEMB      129             0.0000000000
     15038       129  SAPS      H12X           16.3640285532       10.8239671635       -0.4250804638  MEMB      129             0.0000000000
     15039       129  SAPS      H12Y           17.9579218991       11.1808498949        0.2639407233  MEMB      129             0.0000000000
     15040       129  SAPS      C313           17.6452055868        9.1214931934       -0.6272877897  MEMB      129             0.0000000000
     15041       129  SAPS      H13X           17.0704406859        8.5576375570       -1.3516998309  MEMB      129             0.0000000000
     15042       129  SAPS      H13Y           17.2034576061        8.6019378789        0.2230686797  MEMB      129             0.0000000000
     15043       129  SAPS      C314           19.0874471691        8.7138568079       -0.8358993848  MEMB      129             0.0000000000
     15044       129  SAPS      H14X           19.8150558401        9.5534467600       -0.7538652774  MEMB      129             0.0000000000
     15045       129  SAPS      H14Y           19.0325933285        8.4812435795       -1.8940407735  MEMB      129             0.0000000000
     15046       129  SAPS      C315           19.4860442995        7.3787718602       -0.1866532079  MEMB      129             0.0000000000
     15047       129  SAPS      H15X           19.1086593051        6.3795790936       -0.3876893235  MEMB      129             0.0000000000
     15048       129  SAPS      H15Y           18.8311097572        7.3866407624        0.6190107342  MEMB      129             0.0000000000
     15049       129  SAPS      C316           20.9719186653        7.2372972323        0.1478140800  MEMB      129             0.0000000000
     15050       129  SAPS      H16X           21.6566070865        7.1434378114       -0.6006563790  MEMB      129             0.0000000000
     15051       129  SAPS      H16Y           21.2572211826        6.1719537450        0.3204174196  MEMB      129             0.0000000000
     15052       129  SAPS      C317           21.4651700580        8.5605839241        0.7411181646  MEMB      129             0.0000000000
     15053       129  SAPS      H17X           21.2447954236        9.5777662163        0.5150681693  MEMB      129             0.0000000000
     15054       129  SAPS      H17Y           22.3579274909        8.9449965880        0.6830155596  MEMB      129             0.0000000000
     15055       129  SAPS      C318           22.4833451092        8.5115778554        1.6043621636  MEMB      129             0.0000000000
     15056       129  SAPS      H18X           22.9008022374        8.8687730729        2.4739484549  MEMB      129             0.0000000000
     15057       129  SAPS      H18Y           23.2054293190        7.5888247990        1.5632375322  MEMB      129             0.0000000000
     15058       129  SAPS      H18Z           21.9603728649        8.8404560621        2.4743093651  MEMB      129             0.0000000000
     15059       130  OSM       N             -25.1521303838       -8.7267307452      -21.1269943032  MEMB      130             0.0000000000
     15060       130  OSM       C15           -26.4681863250       -8.6527128648      -20.4754802280  MEMB      130             0.0000000000
     15061       130  OSM       H15A          -26.9561619278       -7.7719786586      -20.8643308423  MEMB      130             0.0000000000
     15062       130  OSM       H15B          -26.3966394104       -8.5122407219      -19.4017500124  MEMB      130             0.0000000000
     15063       130  OSM       H15C          -27.0774671760       -9.5100475894      -20.7197925585  MEMB      130             0.0000000000
     15064       130  OSM       C14           -24.4155502324       -9.9561746610      -20.6887512357  MEMB      130             0.0000000000
     15065       130  OSM       H14A          -25.1003089618      -10.7720709692      -20.5199789010  MEMB      130             0.0000000000
     15066       130  OSM       H14B          -23.8069871611       -9.7719251442      -19.8038859190  MEMB      130             0.0000000000
     15067       130  OSM       H14C          -23.7152441510      -10.2739645616      -21.4675497331  MEMB      130             0.0000000000
     15068       130  OSM       C13           -25.3589259937       -8.8558583715      -22.6051183421  MEMB      130             0.0000000000
     15069       130  OSM       H13A          -25.9759264739       -8.0773277076      -23.0250131166  MEMB      130             0.0000000000
     15070       130  OSM       H13B          -25.7655402304       -9.8299181671      -22.8563610234  MEMB      130             0.0000000000
     15071       130  OSM       H13C          -24.3712235703       -8.7846153356      -23.0803973744  MEMB      130             0.0000000000
     15072       130  OSM       C12           -24.4338924857       -7.4182060561      -20.7983444787  MEMB      130             0.0000000000
     15073       130  OSM       H12A          -24.1491542710       -7.3864714571      -19.7469522928  MEMB      130             0.0000000000
     15074       130  OSM       H12B          -25.1708089647       -6.6467779309      -20.9541870844  MEMB      130             0.0000000000
     15075       130  OSM       C11           -23.2688363632       -6.9660207316      -21.6994875965  MEMB      130             0.0000000000
     15076       130  OSM       H11A          -22.8807546579       -5.9477663929      -21.4538045420  MEMB      130             0.0000000000
     15077       130  OSM       H11B          -23.7057278291       -6.8849206525      -22.7116338620  MEMB      130             0.0000000000
     15078       130  OSM       P             -21.0408189567       -8.0230398079      -20.7744618257  MEMB      130             0.0000000000
     15079       130  OSM       O13           -20.2097851364       -9.1550059962      -21.1838085173  MEMB      130             0.0000000000
     15080       130  OSM       O14           -20.4530026924       -6.6834497063      -20.5771194144  MEMB      130             0.0000000000
     15081       130  OSM       O11           -21.7944670042       -8.4925110673      -19.4554437015  MEMB      130             0.0000000000
     15082       130  OSM       O12           -22.2505347767       -7.9234993964      -21.7965950743  MEMB      130             0.0000000000
     15083       130  OSM       C1S           -21.4553860836       -7.8711510552      -18.2233510924  MEMB      130             0.0000000000
     15084       130  OSM       H1S           -21.8942214562       -6.8493498834      -18.2273659468  MEMB      130             0.0000000000
     15085       130  OSM       H1T           -20.3428900610       -7.8044638426      -18.0802132482  MEMB      130             0.0000000000
     15086       130  OSM       NF            -22.2331431284       -8.0502669248      -15.7904281461  MEMB      130             0.0000000000
     15087       130  OSM       HNF           -21.6302748131       -8.2916503206      -15.0390913943  MEMB      130             0.0000000000
     15088       130  OSM       C2S           -22.0464999556       -8.7137506311      -17.0513509381  MEMB      130             0.0000000000
     15089       130  OSM       H2S           -23.0504375188       -9.0415546815      -17.3897778875  MEMB      130             0.0000000000
     15090       130  OSM       C3S           -21.1864891412       -9.9464065103      -16.7808065906  MEMB      130             0.0000000000
     15091       130  OSM       H3S           -20.1601183073       -9.6145904253      -16.4857135766  MEMB      130             0.0000000000
     15092       130  OSM       O3            -21.0970284378      -10.7608168962      -17.9312003603  MEMB      130             0.0000000000
     15093       130  OSM       HO3           -21.4747821120      -10.1979883212      -18.6260526935  MEMB      130             0.0000000000
     15094       130  OSM       C4S           -21.8598965774      -10.7289468575      -15.6679794194  MEMB      130             0.0000000000
     15095       130  OSM       H4S           -22.8482632188      -11.1430218200      -15.9068124453  MEMB      130             0.0000000000
     15096       130  OSM       C5S           -21.3894326778      -10.8936550061      -14.4221514331  MEMB      130             0.0000000000
     15097       130  OSM       H5S           -20.4199869501      -10.4463606959      -14.1621663849  MEMB      130             0.0000000000
     15098       130  OSM       C6S           -22.0641722572      -11.6654784165      -13.3161842216  MEMB      130             0.0000000000
     15099       130  OSM       H6S           -21.7570050959      -12.7317067495      -13.4132950478  MEMB      130             0.0000000000
     15100       130  OSM       H6T           -23.1833835440      -11.6604694648      -13.3406708386  MEMB      130             0.0000000000
     15101       130  OSM       C7S           -21.5635164231      -11.1314687006      -11.9597944198  MEMB      130             0.0000000000
     15102       130  OSM       H7S           -21.7675273088      -10.0481269345      -11.8469516765  MEMB      130             0.0000000000
     15103       130  OSM       H7T           -20.4705479862      -11.2779599381      -11.9430016503  MEMB      130             0.0000000000
     15104       130  OSM       C8S           -22.1717968683      -11.8380739067      -10.7520504684  MEMB      130             0.0000000000
     15105       130  OSM       H8S           -21.9838564278      -12.9215268595      -10.8360628216  MEMB      130             0.0000000000
     15106       130  OSM       H8T           -23.2595268104      -11.5963376782      -10.7483949840  MEMB      130             0.0000000000
     15107       130  OSM       C9S           -21.5559205845      -11.5326464575       -9.3995368326  MEMB      130             0.0000000000
     15108       130  OSM       H9S           -21.1926349836      -10.4985393702       -9.4846766166  MEMB      130             0.0000000000
     15109       130  OSM       H9T           -20.6601026128      -12.1941935274       -9.2615967150  MEMB      130             0.0000000000
     15110       130  OSM       C10S          -22.5940716476      -11.5331103232       -8.2439416670  MEMB      130             0.0000000000
     15111       130  OSM       H10S          -23.0388541057      -12.5100187522       -7.9934071987  MEMB      130             0.0000000000
     15112       130  OSM       H10T          -23.4636100405      -10.9264579196       -8.5321362530  MEMB      130             0.0000000000
     15113       130  OSM       C11S          -22.1023903426      -10.8353046367       -6.9799003710  MEMB      130             0.0000000000
     15114       130  OSM       H11S          -21.6529153970       -9.8959582429       -7.2413702400  MEMB      130             0.0000000000
     15115       130  OSM       H11T          -21.1788306709      -11.1284152083       -6.5400058449  MEMB      130             0.0000000000
     15116       130  OSM       C12S          -22.9562436144      -10.9445060806       -5.7296881888  MEMB      130             0.0000000000
     15117       130  OSM       H12S          -22.9287657626      -11.9621440352       -5.3167585441  MEMB      130             0.0000000000
     15118       130  OSM       H12T          -24.0038401557      -10.7466058338       -5.9993181706  MEMB      130             0.0000000000
     15119       130  OSM       C13S          -22.3321348772      -10.1514574321       -4.5879576444  MEMB      130             0.0000000000
     15120       130  OSM       H13S          -22.4614994675       -9.0816425931       -4.8145944512  MEMB      130             0.0000000000
     15121       130  OSM       H13T          -21.2443469998      -10.3720936409       -4.5116312707  MEMB      130             0.0000000000
     15122       130  OSM       C14S          -22.8827323470      -10.3614126932       -3.1890714749  MEMB      130             0.0000000000
     15123       130  OSM       H14S          -22.3491791122       -9.6194267179       -2.5582829590  MEMB      130             0.0000000000
     15124       130  OSM       H14T          -22.6866412894      -11.3913505282       -2.8146609041  MEMB      130             0.0000000000
     15125       130  OSM       C15S          -24.3452765320      -10.0482214594       -3.1005656829  MEMB      130             0.0000000000
     15126       130  OSM       H15S          -24.6926064463      -10.4260200897       -2.0968219802  MEMB      130             0.0000000000
     15127       130  OSM       H15T          -24.8313714823      -10.5860587348       -3.9518746849  MEMB      130             0.0000000000
     15128       130  OSM       C16S          -24.7234885860       -8.6086572528       -3.3422609774  MEMB      130             0.0000000000
     15129       130  OSM       H16S          -24.4849276343       -8.3186671225       -4.3648106598  MEMB      130             0.0000000000
     15130       130  OSM       H16T          -24.2943426980       -8.0029709962       -2.5108073668  MEMB      130             0.0000000000
     15131       130  OSM       C17S          -26.1579286729       -8.3187683431       -3.3797128833  MEMB      130             0.0000000000
     15132       130  OSM       H17S          -26.6904130389       -9.0524390301       -4.0202876985  MEMB      130             0.0000000000
     15133       130  OSM       H17T          -26.5861659489       -7.3158849565       -3.6079923923  MEMB      130             0.0000000000
     15134       130  OSM       C18S          -26.3492766283       -8.4635404305       -1.9754474663  MEMB      130             0.0000000000
     15135       130  OSM       H18S          -26.5457919014       -9.5551971492       -1.7285987803  MEMB      130             0.0000000000
     15136       130  OSM       H18T          -27.2554003939       -7.8461696046       -1.8627013385  MEMB      130             0.0000000000
     15137       130  OSM       H18U          -25.8253501159       -7.9359597246       -1.1722412982  MEMB      130             0.0000000000
     15138       130  OSM       C1F           -23.0953544751       -7.1253435742      -15.5419725765  MEMB      130             0.0000000000
     15139       130  OSM       OF            -23.7766094851       -6.6529218388      -16.4397489574  MEMB      130             0.0000000000
     15140       130  OSM       C2F           -23.0441548496       -6.7364870214      -14.1091744616  MEMB      130             0.0000000000
     15141       130  OSM       H2F           -23.1736464684       -5.7058735037      -13.8468813381  MEMB      130             0.0000000000
     15142       130  OSM       H2G           -22.0588447162       -6.9089165971      -13.6523158813  MEMB      130             0.0000000000
     15143       130  OSM       C3F           -24.2348158867       -7.2403649907      -13.3965931226  MEMB      130             0.0000000000
     15144       130  OSM       H3F           -24.2517048709       -8.3335907906      -13.5069966388  MEMB      130             0.0000000000
     15145       130  OSM       H3G           -25.0716956742       -6.7292317286      -13.9400141939  MEMB      130             0.0000000000
     15146       130  OSM       C4F           -24.1136935624       -6.7894109689      -11.9610557722  MEMB      130             0.0000000000
     15147       130  OSM       H4F           -23.6875593300       -5.7786434094      -11.9414566566  MEMB      130             0.0000000000
     15148       130  OSM       H4G           -23.4217180946       -7.4400256544      -11.4018259630  MEMB      130             0.0000000000
     15149       130  OSM       C5F           -25.4460252470       -6.7209592000      -11.2938903680  MEMB      130             0.0000000000
     15150       130  OSM       H5F           -25.9645955778       -7.6927065132      -11.4664554819  MEMB      130             0.0000000000
     15151       130  OSM       H5G           -25.9835912838       -5.9320321871      -11.8032577342  MEMB      130             0.0000000000
     15152       130  OSM       C6F           -25.3031076009       -6.3270333049       -9.8280969627  MEMB      130             0.0000000000
     15153       130  OSM       H6F           -26.2643247434       -5.9134370811       -9.4183869229  MEMB      130             0.0000000000
     15154       130  OSM       H6G           -24.4903789879       -5.6401081560       -9.6683367107  MEMB      130             0.0000000000
     15155       130  OSM       C7F           -24.8859465661       -7.5674977561       -9.0949371958  MEMB      130             0.0000000000
     15156       130  OSM       H7F           -24.1793777607       -8.2910620259       -9.5056159591  MEMB      130             0.0000000000
     15157       130  OSM       H7G           -25.7951651597       -7.9164669383       -9.5388055287  MEMB      130             0.0000000000
     15158       130  OSM       C8F           -24.7344605772       -7.5549931032       -7.5871530686  MEMB      130             0.0000000000
     15159       130  OSM       H8F           -24.8663682429       -8.5266294177       -7.0946146372  MEMB      130             0.0000000000
     15160       130  OSM       H8G           -25.5350834528       -6.8955258405       -7.1554770709  MEMB      130             0.0000000000
     15161       130  OSM       C9F           -23.2914160666       -7.3209147833       -7.3300050836  MEMB      130             0.0000000000
     15162       130  OSM       H9F           -22.5638723507       -8.1202507318       -7.4014362988  MEMB      130             0.0000000000
     15163       130  OSM       C10F          -22.9145441259       -6.1518877272       -6.9803676501  MEMB      130             0.0000000000
     15164       130  OSM       H10F          -21.8280119940       -5.8675266290       -6.8895672957  MEMB      130             0.0000000000
     15165       130  OSM       C11F          -24.0531557004       -5.1977578344       -6.8955296359  MEMB      130             0.0000000000
     15166       130  OSM       H11F          -24.4081825579       -4.7158715675       -7.8372616469  MEMB      130             0.0000000000
     15167       130  OSM       H11G          -23.2220414553       -4.6614701551       -7.0211642841  MEMB      130             0.0000000000
     15168       130  OSM       C12F          -24.9730812057       -4.9732269651       -5.5990910301  MEMB      130             0.0000000000
     15169       130  OSM       H12F          -25.9470488428       -5.3990175392       -5.9158208288  MEMB      130             0.0000000000
     15170       130  OSM       H12G          -25.2867897375       -3.9364551396       -5.3695731624  MEMB      130             0.0000000000
     15171       130  OSM       C13F          -24.5997881247       -5.5765768705       -4.1766225735  MEMB      130             0.0000000000
     15172       130  OSM       H13F          -24.1333282266       -6.5577985496       -4.3790035352  MEMB      130             0.0000000000
     15173       130  OSM       H13G          -25.1497634634       -5.0471773641       -3.3742328505  MEMB      130             0.0000000000
     15174       130  OSM       C14F          -23.4511747030       -5.1882455202       -3.1520454405  MEMB      130             0.0000000000
     15175       130  OSM       H14F          -23.4670659169       -4.0499253057       -2.9734282552  MEMB      130             0.0000000000
     15176       130  OSM       H14G          -22.7261547689       -5.6460360727       -3.9008394606  MEMB      130             0.0000000000
     15177       130  OSM       C15F          -22.9409283282       -5.6469355193       -1.8688009155  MEMB      130             0.0000000000
     15178       130  OSM       H15F          -22.9151184450       -6.6866688728       -2.1642248758  MEMB      130             0.0000000000
     15179       130  OSM       H15G          -23.4804245882       -4.9116942885       -1.2036903457  MEMB      130             0.0000000000
     15180       130  OSM       C16F          -21.5271365509       -5.5525296084       -1.5103490335  MEMB      130             0.0000000000
     15181       130  OSM       H16F          -21.5385003421       -4.4158662755       -1.4889181451  MEMB      130             0.0000000000
     15182       130  OSM       H16G          -20.8414941826       -6.2338607669       -2.1154370015  MEMB      130             0.0000000000
     15183       130  OSM       C17F          -20.7414168960       -6.0913143769       -0.4345628032  MEMB      130             0.0000000000
     15184       130  OSM       H17F          -19.6879233528       -5.7385793942       -0.3538300963  MEMB      130             0.0000000000
     15185       130  OSM       H17G          -20.6217488685       -7.1802462982       -0.5797575310  MEMB      130             0.0000000000
     15186       130  OSM       C18F          -21.6075735567       -5.6272447984        0.5868088843  MEMB      130             0.0000000000
     15187       130  OSM       H18F          -22.4965694517       -6.2543788308        0.5718047203  MEMB      130             0.0000000000
     15188       130  OSM       H18G          -21.8599975316       -4.5322559446        0.4777594964  MEMB      130             0.0000000000
     15189       130  OSM       H18H          -20.9493635589       -5.9376872863        1.3713901113  MEMB      130             0.0000000000
     15190       131  SAPE      N              -4.1199784917       26.8027986544      -20.3568321469  MEMB      131             0.0000000000
     15191       131  SAPE      HN1            -3.2613161917       26.2015086440      -20.3073093935  MEMB      131             0.0000000000
     15192       131  SAPE      HN2            -3.8779062003       27.7831454780      -20.6048379856  MEMB      131             0.0000000000
     15193       131  SAPE      HN3            -4.5852092801       26.6951872691      -19.4313122433  MEMB      131             0.0000000000
     15194       131  SAPE      C12            -5.0357799750       26.3240820558      -21.4575727167  MEMB      131             0.0000000000
     15195       131  SAPE      H12A           -4.4348394570       26.1945238513      -22.3786293004  MEMB      131             0.0000000000
     15196       131  SAPE      H12B           -5.7743691723       27.1317665946      -21.6369352365  MEMB      131             0.0000000000
     15197       131  SAPE      C11            -5.7864713975       25.0240853029      -21.1248948491  MEMB      131             0.0000000000
     15198       131  SAPE      H11A           -6.3393529738       24.7294151211      -22.0468836166  MEMB      131             0.0000000000
     15199       131  SAPE      H11B           -6.5530281690       25.2156190400      -20.3414209372  MEMB      131             0.0000000000
     15200       131  SAPE      P              -4.7869200154       23.2375442376      -19.3849515155  MEMB      131             0.0000000000
     15201       131  SAPE      O13            -4.4708307183       21.8164897068      -19.6065656473  MEMB      131             0.0000000000
     15202       131  SAPE      O14            -3.8713814631       24.1009801280      -18.6022061896  MEMB      131             0.0000000000
     15203       131  SAPE      O12            -4.8975360560       23.9719866342      -20.7929837616  MEMB      131             0.0000000000
     15204       131  SAPE      O11            -6.2556442539       23.3687962312      -18.7664658154  MEMB      131             0.0000000000
     15205       131  SAPE      C1             -6.6939680321       22.4031549796      -17.7825343557  MEMB      131             0.0000000000
     15206       131  SAPE      HA             -7.1365084198       21.5305452101      -18.2803972972  MEMB      131             0.0000000000
     15207       131  SAPE      HB             -5.8659344142       22.0466338527      -17.1216312612  MEMB      131             0.0000000000
     15208       131  SAPE      C2             -7.7081796022       23.0415627164      -16.8250981530  MEMB      131             0.0000000000
     15209       131  SAPE      HS             -8.5656354670       23.3812934137      -17.4591251931  MEMB      131             0.0000000000
     15210       131  SAPE      O21            -6.9506261895       24.0597824668      -16.1963672472  MEMB      131             0.0000000000
     15211       131  SAPE      C21            -7.1928324522       25.2456592573      -16.6786213683  MEMB      131             0.0000000000
     15212       131  SAPE      O22            -8.2059900073       25.5423748771      -17.3107342433  MEMB      131             0.0000000000
     15213       131  SAPE      C22            -6.2475286261       26.1979514990      -15.9062208451  MEMB      131             0.0000000000
     15214       131  SAPE      H2R            -5.8774291741       26.9926577332      -16.5091812026  MEMB      131             0.0000000000
     15215       131  SAPE      H2S            -6.8004299000       27.0093839662      -15.4382732663  MEMB      131             0.0000000000
     15216       131  SAPE      C3             -8.3017188808       22.1779509801      -15.7026334396  MEMB      131             0.0000000000
     15217       131  SAPE      HX             -9.1161982255       21.5872425206      -16.1559883287  MEMB      131             0.0000000000
     15218       131  SAPE      HY             -8.8048002264       22.8673736305      -14.9666291141  MEMB      131             0.0000000000
     15219       131  SAPE      O31            -7.2843610818       21.3284650089      -15.1102633947  MEMB      131             0.0000000000
     15220       131  SAPE      C31            -7.5814234727       21.0531716616      -13.8597053820  MEMB      131             0.0000000000
     15221       131  SAPE      O32            -8.5584738116       21.4803247637      -13.2625284668  MEMB      131             0.0000000000
     15222       131  SAPE      C32            -6.6285571368       20.1061028302      -13.2164960668  MEMB      131             0.0000000000
     15223       131  SAPE      H2X            -5.6384544273       20.4653963684      -13.5394627690  MEMB      131             0.0000000000
     15224       131  SAPE      H2Y            -6.7045258235       19.0119783486      -13.4433539903  MEMB      131             0.0000000000
     15225       131  SAPE      C23            -5.2171580289       25.5485461166      -14.9058448941  MEMB      131             0.0000000000
     15226       131  SAPE      H3R            -4.6987438211       24.7535604395      -15.4591514471  MEMB      131             0.0000000000
     15227       131  SAPE      H3S            -5.5389471497       25.0344300526      -13.9547566903  MEMB      131             0.0000000000
     15228       131  SAPE      C24            -4.2242184723       26.6028186267      -14.4836080421  MEMB      131             0.0000000000
     15229       131  SAPE      H4R            -3.7537337344       27.0254531804      -15.3656176023  MEMB      131             0.0000000000
     15230       131  SAPE      H4S            -3.4596817349       26.1323013905      -13.8404993669  MEMB      131             0.0000000000
     15231       131  SAPE      C25            -4.7705153803       27.7198448950      -13.7351901652  MEMB      131             0.0000000000
     15232       131  SAPE      H5R            -5.5460472012       28.4115403679      -14.1257871465  MEMB      131             0.0000000000
     15233       131  SAPE      C26            -4.4233970795       27.8873340787      -12.5112261940  MEMB      131             0.0000000000
     15234       131  SAPE      H6R            -4.9314395630       28.7078267815      -12.2911787062  MEMB      131             0.0000000000
     15235       131  SAPE      C27            -3.5652127490       27.2964595512      -11.4555817530  MEMB      131             0.0000000000
     15236       131  SAPE      H7R            -3.4841092536       27.9812377993      -10.5664495051  MEMB      131             0.0000000000
     15237       131  SAPE      H7S            -2.5829060475       27.2585635307      -11.9312997355  MEMB      131             0.0000000000
     15238       131  SAPE      C28            -4.0060469430       25.9122323236      -11.1172568715  MEMB      131             0.0000000000
     15239       131  SAPE      H8R            -3.5827137847       25.1146510748      -11.7088993985  MEMB      131             0.0000000000
     15240       131  SAPE      C29            -4.8367411735       25.5325315597      -10.1792098986  MEMB      131             0.0000000000
     15241       131  SAPE      H9R            -5.1189556144       24.4481133464      -10.1521572987  MEMB      131             0.0000000000
     15242       131  SAPE      C210           -5.4852323159       26.5437291172       -9.2809530735  MEMB      131             0.0000000000
     15243       131  SAPE      H10R           -5.4460035254       27.6852191213       -9.6051214660  MEMB      131             0.0000000000
     15244       131  SAPE      H10S           -5.5418130167       26.4659823446       -8.2529531847  MEMB      131             0.0000000000
     15245       131  SAPE      C211           -6.6700991693       25.7444933010       -9.4013431374  MEMB      131             0.0000000000
     15246       131  SAPE      H11R           -6.7246068721       26.7072484261       -9.9275880450  MEMB      131             0.0000000000
     15247       131  SAPE      C212           -7.7144171166       24.9215472773       -8.9460886583  MEMB      131             0.0000000000
     15248       131  SAPE      H12R           -8.7895127836       24.7700061039       -9.2750373675  MEMB      131             0.0000000000
     15249       131  SAPE      C213           -7.7428873894       24.6146280895       -7.5675314778  MEMB      131             0.0000000000
     15250       131  SAPE      H13R           -7.4190311125       25.5478511775       -7.0699346543  MEMB      131             0.0000000000
     15251       131  SAPE      H13S           -6.9396442947       23.9282056982       -7.8318249642  MEMB      131             0.0000000000
     15252       131  SAPE      C214           -9.0726164278       24.0779220867       -7.0336997143  MEMB      131             0.0000000000
     15253       131  SAPE      H14R           -9.8866885902       24.7761065359       -6.8016264257  MEMB      131             0.0000000000
     15254       131  SAPE      C215           -9.4155915215       22.8156151044       -7.0303283612  MEMB      131             0.0000000000
     15255       131  SAPE      H15R          -10.3302306826       22.4723825390       -6.5764956989  MEMB      131             0.0000000000
     15256       131  SAPE      C216           -8.5532281221       21.7511958602       -7.5353970572  MEMB      131             0.0000000000
     15257       131  SAPE      H16R           -7.5858561053       22.1401850549       -7.8745432479  MEMB      131             0.0000000000
     15258       131  SAPE      H16S           -9.0450878960       21.2917907393       -8.4104501681  MEMB      131             0.0000000000
     15259       131  SAPE      C217           -8.2629846386       20.7757020766       -6.4080830998  MEMB      131             0.0000000000
     15260       131  SAPE      H17R           -7.6956027360       19.9503972480       -6.8905327292  MEMB      131             0.0000000000
     15261       131  SAPE      H17S           -9.2037882524       20.4016071576       -5.9589552680  MEMB      131             0.0000000000
     15262       131  SAPE      C218           -7.4581185628       21.3152159074       -5.2263348836  MEMB      131             0.0000000000
     15263       131  SAPE      H18R           -8.0821100427       22.0644342730       -4.6881519431  MEMB      131             0.0000000000
     15264       131  SAPE      H18S           -6.5657179988       21.8331450448       -5.6279788834  MEMB      131             0.0000000000
     15265       131  SAPE      C219           -7.0219134329       20.1846214555       -4.2752677154  MEMB      131             0.0000000000
     15266       131  SAPE      H19R           -6.3959605038       19.4639432824       -4.8517783138  MEMB      131             0.0000000000
     15267       131  SAPE      H19S           -7.9157840761       19.6132639069       -3.9428966498  MEMB      131             0.0000000000
     15268       131  SAPE      C220           -6.2989375980       20.6374695747       -2.9997114535  MEMB      131             0.0000000000
     15269       131  SAPE      H20R           -6.2694850139       19.7969233777       -2.2698498894  MEMB      131             0.0000000000
     15270       131  SAPE      H20S           -6.8508704600       21.4639474350       -2.5051476411  MEMB      131             0.0000000000
     15271       131  SAPE      H20T           -5.2647623637       20.9808622516       -3.2160499434  MEMB      131             0.0000000000
     15272       131  SAPE      C33            -6.8682660438       20.3467079064      -11.7241570663  MEMB      131             0.0000000000
     15273       131  SAPE      H3X            -7.6210876031       19.6175804384      -11.3224363053  MEMB      131             0.0000000000
     15274       131  SAPE      H3Y            -7.1260775081       21.3722949179      -11.4337511258  MEMB      131             0.0000000000
     15275       131  SAPE      C34            -5.6460626821       20.1356848120      -10.9321085332  MEMB      131             0.0000000000
     15276       131  SAPE      H4X            -5.7615860055       19.0842396929      -11.2891029259  MEMB      131             0.0000000000
     15277       131  SAPE      H4Y            -5.8335335199       20.1264816088       -9.8203243681  MEMB      131             0.0000000000
     15278       131  SAPE      C35            -4.2135101588       20.6346516529      -11.3680282686  MEMB      131             0.0000000000
     15279       131  SAPE      H5X            -3.9692132748       20.5112987956      -12.4162433493  MEMB      131             0.0000000000
     15280       131  SAPE      H5Y            -3.2858682488       20.1127596366      -11.0207562259  MEMB      131             0.0000000000
     15281       131  SAPE      C36            -3.8475716336       21.9489302751      -10.8092758134  MEMB      131             0.0000000000
     15282       131  SAPE      H6X            -3.9957467483       21.9515415443       -9.7042801648  MEMB      131             0.0000000000
     15283       131  SAPE      H6Y            -4.6074850809       22.5753560254      -11.3180735039  MEMB      131             0.0000000000
     15284       131  SAPE      C37            -2.3809809671       22.2504605683      -11.1621537270  MEMB      131             0.0000000000
     15285       131  SAPE      H7X            -2.2937729533       23.3384482458      -11.0485174180  MEMB      131             0.0000000000
     15286       131  SAPE      H7Y            -2.1442863968       21.9807485836      -12.2235298187  MEMB      131             0.0000000000
     15287       131  SAPE      C38            -1.2857268719       21.6279001883      -10.2590953043  MEMB      131             0.0000000000
     15288       131  SAPE      H8X            -0.2890453250       21.9487356405      -10.6324380817  MEMB      131             0.0000000000
     15289       131  SAPE      H8Y            -1.2882480828       20.5525855656      -10.4268205369  MEMB      131             0.0000000000
     15290       131  SAPE      C39            -1.3285008434       21.9423175135       -8.7484989154  MEMB      131             0.0000000000
     15291       131  SAPE      H9X            -0.3398862950       21.6386487789       -8.3310120563  MEMB      131             0.0000000000
     15292       131  SAPE      H9Y            -2.0948274112       21.3485357086       -8.2093896442  MEMB      131             0.0000000000
     15293       131  SAPE      C310           -1.5804861892       23.4354716592       -8.5001708314  MEMB      131             0.0000000000
     15294       131  SAPE      H10X           -2.6372539613       23.6583820107       -8.7075028765  MEMB      131             0.0000000000
     15295       131  SAPE      H10Y           -1.0283276007       23.9461538962       -9.3071126331  MEMB      131             0.0000000000
     15296       131  SAPE      C311           -1.2213085295       23.9509000981       -7.0953022438  MEMB      131             0.0000000000
     15297       131  SAPE      H11X           -0.6270617343       24.8880147046       -7.0482935890  MEMB      131             0.0000000000
     15298       131  SAPE      H11Y           -0.5783198786       23.1723031395       -6.6566855716  MEMB      131             0.0000000000
     15299       131  SAPE      C312           -2.4298987327       24.2511778306       -6.2121835106  MEMB      131             0.0000000000
     15300       131  SAPE      H12X           -2.0635410782       24.6620756472       -5.2437779282  MEMB      131             0.0000000000
     15301       131  SAPE      H12Y           -2.9288757634       23.2709018998       -6.0749760103  MEMB      131             0.0000000000
     15302       131  SAPE      C313           -3.4267430745       25.2375213799       -6.8326335348  MEMB      131             0.0000000000
     15303       131  SAPE      H13X           -3.9503724308       24.6844983724       -7.6436494829  MEMB      131             0.0000000000
     15304       131  SAPE      H13Y           -2.8671809140       26.0972124536       -7.2688886492  MEMB      131             0.0000000000
     15305       131  SAPE      C314           -4.5261968276       25.7502994243       -5.8933148823  MEMB      131             0.0000000000
     15306       131  SAPE      H14X           -5.1379842202       24.9001834902       -5.5255624533  MEMB      131             0.0000000000
     15307       131  SAPE      H14Y           -5.2302776506       26.3642882065       -6.4789193258  MEMB      131             0.0000000000
     15308       131  SAPE      C315           -4.0178915495       26.5842802885       -4.7037591169  MEMB      131             0.0000000000
     15309       131  SAPE      H15X           -3.3139239088       27.3584845204       -5.0507237586  MEMB      131             0.0000000000
     15310       131  SAPE      H15Y           -3.4545855956       25.9351895832       -4.0053905038  MEMB      131             0.0000000000
     15311       131  SAPE      C316           -5.1324238045       27.2817241215       -3.9276317414  MEMB      131             0.0000000000
     15312       131  SAPE      H16X           -5.5915516150       28.0465051869       -4.5899591650  MEMB      131             0.0000000000
     15313       131  SAPE      H16Y           -4.7588852448       27.8061926567       -3.0303318139  MEMB      131             0.0000000000
     15314       131  SAPE      C317           -6.1937457417       26.2932224271       -3.4867771911  MEMB      131             0.0000000000
     15315       131  SAPE      H17X           -6.5527928087       25.8707118954       -4.4494853668  MEMB      131             0.0000000000
     15316       131  SAPE      H17Y           -6.9846668202       26.8107320263       -2.9056559908  MEMB      131             0.0000000000
     15317       131  SAPE      C318           -5.8282279138       25.0507536583       -2.7447910719  MEMB      131             0.0000000000
     15318       131  SAPE      H18X           -6.7366983748       24.4060019819       -2.6494955783  MEMB      131             0.0000000000
     15319       131  SAPE      H18Y           -5.3903211299       25.3294386345       -1.7710137241  MEMB      131             0.0000000000
     15320       131  SAPE      H18Z           -5.1034366135       24.4919368048       -3.3614987433  MEMB      131             0.0000000000
     15321       132  CHL1      C3              9.8015139156      -22.9551605096      -17.3309679233  MEMB      132             0.0000000000
     15322       132  CHL1      H3              9.1173854349      -22.0744549644      -17.3297277664  MEMB      132             0.0000000000
     15323       132  CHL1      O3             10.0192540603      -23.4291675802      -18.6467443874  MEMB      132             0.0000000000
     15324       132  CHL1      H3'            10.7163423013      -22.8365904238      -18.9876084258  MEMB      132             0.0000000000
     15325       132  CHL1      C4             11.1480411622      -22.4877007848      -16.7709574346  MEMB      132             0.0000000000
     15326       132  CHL1      H4A            11.9255107696      -23.2456568440      -16.8516702378  MEMB      132             0.0000000000
     15327       132  CHL1      H4B            11.6322724033      -21.7387385270      -17.4187930735  MEMB      132             0.0000000000
     15328       132  CHL1      C5             10.9339280108      -22.0101735084      -15.3484490393  MEMB      132             0.0000000000
     15329       132  CHL1      C6             11.2972355900      -20.8096087356      -14.9732785552  MEMB      132             0.0000000000
     15330       132  CHL1      H6             11.7815609730      -20.1935760157      -15.7336216055  MEMB      132             0.0000000000
     15331       132  CHL1      C7             11.1374316952      -20.3301266751      -13.5559817552  MEMB      132             0.0000000000
     15332       132  CHL1      H7A            12.0418072576      -19.7745552157      -13.2679716996  MEMB      132             0.0000000000
     15333       132  CHL1      H7B            10.2644262170      -19.6462939879      -13.5140894077  MEMB      132             0.0000000000
     15334       132  CHL1      C8             10.9046714854      -21.4410167650      -12.4843526987  MEMB      132             0.0000000000
     15335       132  CHL1      H8             11.8698925649      -21.9840565264      -12.3428372937  MEMB      132             0.0000000000
     15336       132  CHL1      C14            10.4948376248      -20.9014683155      -11.1254075934  MEMB      132             0.0000000000
     15337       132  CHL1      H14             9.5535512688      -20.3210041045      -11.2694215784  MEMB      132             0.0000000000
     15338       132  CHL1      C15            11.4282440450      -19.8990162950      -10.4818514319  MEMB      132             0.0000000000
     15339       132  CHL1      H15A           12.4678098397      -20.2841926928      -10.5990790653  MEMB      132             0.0000000000
     15340       132  CHL1      H15B           11.3454305170      -18.8787691308      -10.9058955299  MEMB      132             0.0000000000
     15341       132  CHL1      C16            11.0623618790      -19.8987830265       -9.0012182166  MEMB      132             0.0000000000
     15342       132  CHL1      H16A           11.9822074349      -20.1765718650       -8.4329512374  MEMB      132             0.0000000000
     15343       132  CHL1      H16B           10.6924329425      -18.9204692494       -8.6238560556  MEMB      132             0.0000000000
     15344       132  CHL1      C17             9.9873846454      -20.9997552124       -8.8360142299  MEMB      132             0.0000000000
     15345       132  CHL1      H17             9.0112893796      -20.5151084358       -9.0631563802  MEMB      132             0.0000000000
     15346       132  CHL1      C13            10.2313198420      -21.9445670928      -10.0324441346  MEMB      132             0.0000000000
     15347       132  CHL1      C18            11.4829899840      -22.7834964544       -9.7273436361  MEMB      132             0.0000000000
     15348       132  CHL1      H18A           12.3563529778      -22.1319253815       -9.5469133169  MEMB      132             0.0000000000
     15349       132  CHL1      H18B           11.3041975804      -23.4130716000       -8.8267737201  MEMB      132             0.0000000000
     15350       132  CHL1      H18C           11.7688276708      -23.4522850230      -10.5503278524  MEMB      132             0.0000000000
     15351       132  CHL1      C12             9.0674949378      -22.8393715563      -10.4624377912  MEMB      132             0.0000000000
     15352       132  CHL1      H12A            9.0429643295      -23.7211572287       -9.7669090506  MEMB      132             0.0000000000
     15353       132  CHL1      H12B            8.1248183111      -22.2889792606      -10.4122351189  MEMB      132             0.0000000000
     15354       132  CHL1      C11             9.1815596390      -23.2860912805      -11.9336398158  MEMB      132             0.0000000000
     15355       132  CHL1      H11A            9.9195014992      -23.9573074744      -11.7098003858  MEMB      132             0.0000000000
     15356       132  CHL1      H11B            8.3916737315      -23.9456471138      -12.3196849236  MEMB      132             0.0000000000
     15357       132  CHL1      C9              9.8095093099      -22.3455081012      -13.0024586153  MEMB      132             0.0000000000
     15358       132  CHL1      H9              8.9249352987      -21.7481996501      -13.2887240246  MEMB      132             0.0000000000
     15359       132  CHL1      C10            10.2141618787      -22.9140216380      -14.3634078536  MEMB      132             0.0000000000
     15360       132  CHL1      C19            11.4616151345      -23.7224166194      -14.2208637431  MEMB      132             0.0000000000
     15361       132  CHL1      H19A           11.4543828539      -24.3159004114      -15.0289205095  MEMB      132             0.0000000000
     15362       132  CHL1      H19B           12.4543895946      -23.5453287891      -13.7858197046  MEMB      132             0.0000000000
     15363       132  CHL1      H19C           11.3310943337      -24.6695133451      -13.8925832464  MEMB      132             0.0000000000
     15364       132  CHL1      C1              8.9518950137      -23.5695415263      -15.0380095284  MEMB      132             0.0000000000
     15365       132  CHL1      H1A             8.5633379773      -24.4370725134      -14.4891317889  MEMB      132             0.0000000000
     15366       132  CHL1      H1B             8.0882860273      -22.8920788969      -15.0295701517  MEMB      132             0.0000000000
     15367       132  CHL1      C2              9.1146750364      -24.0178482519      -16.4732172334  MEMB      132             0.0000000000
     15368       132  CHL1      H2A             8.2101896061      -24.4664163090      -16.9251156080  MEMB      132             0.0000000000
     15369       132  CHL1      H2B             9.6885591409      -24.9006362200      -16.2877202016  MEMB      132             0.0000000000
     15370       132  CHL1      C20             9.9457066493      -21.4995098559       -7.3869495189  MEMB      132             0.0000000000
     15371       132  CHL1      H20            10.8063668488      -22.1772615196       -7.1956384900  MEMB      132             0.0000000000
     15372       132  CHL1      C21             8.6336758241      -22.2500931561       -7.0817318624  MEMB      132             0.0000000000
     15373       132  CHL1      H21A            8.7166147985      -22.7384908812       -6.0846168611  MEMB      132             0.0000000000
     15374       132  CHL1      H21B            8.3721976181      -22.9927115043       -7.8626508142  MEMB      132             0.0000000000
     15375       132  CHL1      H21C            7.8011782065      -21.5237810328       -7.0198897748  MEMB      132             0.0000000000
     15376       132  CHL1      C22            10.1532376658      -20.3214908180       -6.3931962464  MEMB      132             0.0000000000
     15377       132  CHL1      H22A           11.1374804172      -19.8553911341       -6.6064835576  MEMB      132             0.0000000000
     15378       132  CHL1      H22B            9.3627138548      -19.5491190253       -6.5066721511  MEMB      132             0.0000000000
     15379       132  CHL1      C23            10.3437811179      -20.7529003555       -4.9406130127  MEMB      132             0.0000000000
     15380       132  CHL1      H23A            9.3829296093      -21.1053188337       -4.5120533924  MEMB      132             0.0000000000
     15381       132  CHL1      H23B           11.0936224392      -21.5754806442       -4.9488368551  MEMB      132             0.0000000000
     15382       132  CHL1      C24            10.9037917660      -19.6421780821       -4.0474255149  MEMB      132             0.0000000000
     15383       132  CHL1      H24A           11.8360735999      -19.2275035754       -4.4942537733  MEMB      132             0.0000000000
     15384       132  CHL1      H24B           10.1670954678      -18.8105587023       -4.0242950038  MEMB      132             0.0000000000
     15385       132  CHL1      C25            11.1923859481      -20.1178629925       -2.6054177897  MEMB      132             0.0000000000
     15386       132  CHL1      H25            10.2817521662      -20.5661391228       -2.1459681648  MEMB      132             0.0000000000
     15387       132  CHL1      C26            12.3028736909      -21.1835108640       -2.5234045490  MEMB      132             0.0000000000
     15388       132  CHL1      H26A           12.6254142910      -21.2440039748       -1.4601998913  MEMB      132             0.0000000000
     15389       132  CHL1      H26B           11.9574387324      -22.1792613116       -2.8716902455  MEMB      132             0.0000000000
     15390       132  CHL1      H26C           13.1758112554      -20.9111576106       -3.1483775112  MEMB      132             0.0000000000
     15391       132  CHL1      C27            11.5663365402      -18.9327456032       -1.7165326283  MEMB      132             0.0000000000
     15392       132  CHL1      H27A           11.6116196675      -19.2377644860       -0.6546391342  MEMB      132             0.0000000000
     15393       132  CHL1      H27B           12.5554557815      -18.6064651404       -2.0050909781  MEMB      132             0.0000000000
     15394       132  CHL1      H27C           10.9036536145      -18.0560138661       -1.8239169833  MEMB      132             0.0000000000
     15395       133  OSM       N             -25.7993894148       -2.7994289506      -21.2784625595  MEMB      133             0.0000000000
     15396       133  OSM       C15           -25.9075882304       -4.0981223499      -20.5637351758  MEMB      133             0.0000000000
     15397       133  OSM       H15A          -26.8502589390       -4.5791138677      -20.7915378378  MEMB      133             0.0000000000
     15398       133  OSM       H15B          -25.8571203284       -3.9549174248      -19.4867006480  MEMB      133             0.0000000000
     15399       133  OSM       H15C          -25.0620256024       -4.7154370145      -20.8250288725  MEMB      133             0.0000000000
     15400       133  OSM       C14           -25.5085713464       -2.9778778882      -22.7481264941  MEMB      133             0.0000000000
     15401       133  OSM       H14A          -26.3859537778       -3.3167955232      -23.2994745217  MEMB      133             0.0000000000
     15402       133  OSM       H14B          -24.6759238673       -3.6501657792      -22.9586385717  MEMB      133             0.0000000000
     15403       133  OSM       H14C          -25.2166204229       -2.0015439539      -23.1426396640  MEMB      133             0.0000000000
     15404       133  OSM       C13           -27.1097026296       -2.0686876298      -21.0948124847  MEMB      133             0.0000000000
     15405       133  OSM       H13A          -27.9382890177       -2.7206437211      -20.8568689661  MEMB      133             0.0000000000
     15406       133  OSM       H13B          -27.4134598970       -1.4778679214      -21.9592332808  MEMB      133             0.0000000000
     15407       133  OSM       H13C          -27.0056565020       -1.2831284270      -20.3413563077  MEMB      133             0.0000000000
     15408       133  OSM       C12           -24.6743364227       -2.0284697216      -20.6134080601  MEMB      133             0.0000000000
     15409       133  OSM       H12A          -23.7867550367       -2.6475717907      -20.6547031543  MEMB      133             0.0000000000
     15410       133  OSM       H12B          -24.9156326818       -1.8660794898      -19.5678627115  MEMB      133             0.0000000000
     15411       133  OSM       C11           -24.2675599167       -0.6303854509      -21.1157139583  MEMB      133             0.0000000000
     15412       133  OSM       H11A          -23.8532133766       -0.6891423043      -22.1448958117  MEMB      133             0.0000000000
     15413       133  OSM       H11B          -23.4496492058       -0.3348486029      -20.4121024886  MEMB      133             0.0000000000
     15414       133  OSM       P             -25.1144764619        1.8301214446      -20.7574399292  MEMB      133             0.0000000000
     15415       133  OSM       O13           -23.8535132520        2.2378933969      -21.4382027869  MEMB      133             0.0000000000
     15416       133  OSM       O14           -26.3410439750        2.5068811542      -21.1693328010  MEMB      133             0.0000000000
     15417       133  OSM       O11           -24.9922179208        1.8985945180      -19.2004869750  MEMB      133             0.0000000000
     15418       133  OSM       O12           -25.3553302326        0.2783152174      -21.0593507663  MEMB      133             0.0000000000
     15419       133  OSM       C1S           -23.9066663875        2.5937458189      -18.5930847637  MEMB      133             0.0000000000
     15420       133  OSM       H1S           -23.8964577040        3.6742391197      -18.7185306730  MEMB      133             0.0000000000
     15421       133  OSM       H1T           -22.9581721598        2.3054920897      -19.0643099745  MEMB      133             0.0000000000
     15422       133  OSM       NF            -24.0532660782        0.9241875629      -16.9727273673  MEMB      133             0.0000000000
     15423       133  OSM       HNF           -24.3841278840        0.6129324130      -16.0634421791  MEMB      133             0.0000000000
     15424       133  OSM       C2S           -23.9343129608        2.2469006851      -17.1033269673  MEMB      133             0.0000000000
     15425       133  OSM       H2S           -23.0077800484        2.6416533053      -16.5901068263  MEMB      133             0.0000000000
     15426       133  OSM       C3S           -25.0654832026        2.7877085038      -16.4008144369  MEMB      133             0.0000000000
     15427       133  OSM       H3S           -26.0046517760        2.3114498015      -16.7679297546  MEMB      133             0.0000000000
     15428       133  OSM       O3            -25.0370243198        4.1371322220      -16.7134969878  MEMB      133             0.0000000000
     15429       133  OSM       HO3           -24.5793170198        4.2416068049      -17.5563166029  MEMB      133             0.0000000000
     15430       133  OSM       C4S           -24.8991128663        2.5467069529      -14.9239568995  MEMB      133             0.0000000000
     15431       133  OSM       H4S           -24.3369864472        3.3260824321      -14.3874071796  MEMB      133             0.0000000000
     15432       133  OSM       C5S           -25.5376503208        1.5825919524      -14.2212313195  MEMB      133             0.0000000000
     15433       133  OSM       H5S           -26.3479014910        1.0345783732      -14.7331018033  MEMB      133             0.0000000000
     15434       133  OSM       C6S           -25.4345170522        1.3152807690      -12.7322311828  MEMB      133             0.0000000000
     15435       133  OSM       H6S           -24.8423370458        0.4166255262      -12.5525402579  MEMB      133             0.0000000000
     15436       133  OSM       H6T           -26.4637792724        1.0791518431      -12.3667237782  MEMB      133             0.0000000000
     15437       133  OSM       C7S           -24.7806112613        2.2966293531      -11.7384184287  MEMB      133             0.0000000000
     15438       133  OSM       H7S           -24.8866591704        3.3737224922      -11.7540360449  MEMB      133             0.0000000000
     15439       133  OSM       H7T           -23.8336864656        2.6391180890      -12.1275403068  MEMB      133             0.0000000000
     15440       133  OSM       C8S           -24.8828773667        1.7960737176      -10.2955198439  MEMB      133             0.0000000000
     15441       133  OSM       H8S           -24.3513140930        2.6414546767       -9.8216577960  MEMB      133             0.0000000000
     15442       133  OSM       H8T           -24.4512166934        0.7898327810      -10.2960344942  MEMB      133             0.0000000000
     15443       133  OSM       C9S           -26.2065750432        1.7797066635       -9.5177707037  MEMB      133             0.0000000000
     15444       133  OSM       H9S           -27.0651464562        1.6302333397      -10.1871027981  MEMB      133             0.0000000000
     15445       133  OSM       H9T           -26.2578940102        2.7388309371       -9.0080179356  MEMB      133             0.0000000000
     15446       133  OSM       C10S          -26.2904299727        1.3376947658       -8.0820392263  MEMB      133             0.0000000000
     15447       133  OSM       H10S          -27.3093917990        1.5879598174       -7.6718114482  MEMB      133             0.0000000000
     15448       133  OSM       H10T          -25.5058891392        1.8721445559       -7.4768595482  MEMB      133             0.0000000000
     15449       133  OSM       C11S          -25.9531775456       -0.0651008550       -8.0638592527  MEMB      133             0.0000000000
     15450       133  OSM       H11S          -24.8825477792       -0.0729968302       -8.3867642705  MEMB      133             0.0000000000
     15451       133  OSM       H11T          -26.5672770439       -0.5097246417       -8.8691815567  MEMB      133             0.0000000000
     15452       133  OSM       C12S          -26.1519041688       -0.6246758572       -6.6701497667  MEMB      133             0.0000000000
     15453       133  OSM       H12S          -25.4734014071       -0.0797079137       -5.9732536170  MEMB      133             0.0000000000
     15454       133  OSM       H12T          -25.8282250485       -1.6770681185       -6.7414607448  MEMB      133             0.0000000000
     15455       133  OSM       C13S          -27.5811765785       -0.6539845896       -6.1116170891  MEMB      133             0.0000000000
     15456       133  OSM       H13S          -28.2752835141       -1.0112089365       -6.9092761374  MEMB      133             0.0000000000
     15457       133  OSM       H13T          -27.9332880738        0.3437881896       -5.7751796318  MEMB      133             0.0000000000
     15458       133  OSM       C14S          -27.7103250201       -1.6651209815       -4.9632335983  MEMB      133             0.0000000000
     15459       133  OSM       H14S          -26.8509260171       -2.3700606854       -4.9542868454  MEMB      133             0.0000000000
     15460       133  OSM       H14T          -28.6300727417       -2.2576312175       -5.1804929916  MEMB      133             0.0000000000
     15461       133  OSM       C15S          -27.8145951456       -1.0899831545       -3.5461940221  MEMB      133             0.0000000000
     15462       133  OSM       H15S          -28.0561862070       -0.0034528483       -3.5360559515  MEMB      133             0.0000000000
     15463       133  OSM       H15T          -26.8483262500       -1.2532165027       -3.0228210778  MEMB      133             0.0000000000
     15464       133  OSM       C16S          -28.8996334156       -1.8232775627       -2.7676892346  MEMB      133             0.0000000000
     15465       133  OSM       H16S          -28.7522047811       -2.9208488103       -2.8447743306  MEMB      133             0.0000000000
     15466       133  OSM       H16T          -29.8339149589       -1.5295658498       -3.2661877642  MEMB      133             0.0000000000
     15467       133  OSM       C17S          -28.9896889308       -1.4157821891       -1.3080662463  MEMB      133             0.0000000000
     15468       133  OSM       H17S          -29.3469014464       -0.3492486823       -1.3216722809  MEMB      133             0.0000000000
     15469       133  OSM       H17T          -27.9872887508       -1.4422927214       -0.8567987824  MEMB      133             0.0000000000
     15470       133  OSM       C18S          -29.8296169286       -2.3562963154       -0.4419227200  MEMB      133             0.0000000000
     15471       133  OSM       H18S          -30.8168915990       -2.5225630127       -0.8582197765  MEMB      133             0.0000000000
     15472       133  OSM       H18T          -29.9882829598       -1.9879220000        0.5747025852  MEMB      133             0.0000000000
     15473       133  OSM       H18U          -29.6296080791       -3.4169919930       -0.4345655228  MEMB      133             0.0000000000
     15474       133  OSM       C1F           -23.0259722937        0.4325842369      -17.4834726072  MEMB      133             0.0000000000
     15475       133  OSM       OF            -22.0493026652        0.7845248825      -18.1024544209  MEMB      133             0.0000000000
     15476       133  OSM       C2F           -22.9621875074       -0.5066448986      -16.8306196194  MEMB      133             0.0000000000
     15477       133  OSM       H2F           -21.8773727804       -0.9964708554      -16.5227614861  MEMB      133             0.0000000000
     15478       133  OSM       H2G           -21.8119356448       -0.7405738960      -17.0742074174  MEMB      133             0.0000000000
     15479       133  OSM       C3F           -24.6262533806       -1.1264669912      -15.7335706249  MEMB      133             0.0000000000
     15480       133  OSM       H3F           -25.5458720261       -0.8225123630      -16.1519436861  MEMB      133             0.0000000000
     15481       133  OSM       H3G           -24.6484899759       -0.8164370270      -14.6479528808  MEMB      133             0.0000000000
     15482       133  OSM       C4F           -25.2458311040       -2.6186018764      -15.0011266829  MEMB      133             0.0000000000
     15483       133  OSM       H4F           -25.6903823626       -3.3677947840      -15.7080419593  MEMB      133             0.0000000000
     15484       133  OSM       H4G           -26.1420974485       -2.5159768462      -14.3404659442  MEMB      133             0.0000000000
     15485       133  OSM       C5F           -24.4151509845       -3.6910513882      -14.1377853076  MEMB      133             0.0000000000
     15486       133  OSM       H5F           -23.5044711446       -4.0343094454      -14.5612100319  MEMB      133             0.0000000000
     15487       133  OSM       H5G           -24.8448353384       -4.7120495401      -14.1548924182  MEMB      133             0.0000000000
     15488       133  OSM       C6F           -23.6137886495       -3.2728673010      -12.9600327757  MEMB      133             0.0000000000
     15489       133  OSM       H6F           -22.9544952868       -2.4237082406      -13.0391069813  MEMB      133             0.0000000000
     15490       133  OSM       H6G           -22.8589730668       -4.0592969655      -12.7197517280  MEMB      133             0.0000000000
     15491       133  OSM       C7F           -24.7073208017       -3.0042360126      -12.0391264408  MEMB      133             0.0000000000
     15492       133  OSM       H7F           -25.3692978294       -3.8908903397      -12.1044048703  MEMB      133             0.0000000000
     15493       133  OSM       H7G           -25.2405680398       -2.1115993295      -12.4361886006  MEMB      133             0.0000000000
     15494       133  OSM       C8F           -24.1885690122       -2.7202155935      -10.6972861550  MEMB      133             0.0000000000
     15495       133  OSM       H8F           -25.0329898570       -2.6966010675       -9.9997280669  MEMB      133             0.0000000000
     15496       133  OSM       H8G           -23.7439614712       -1.6831308549      -10.8306957448  MEMB      133             0.0000000000
     15497       133  OSM       C9F           -23.1318738289       -3.7544665587      -10.4072642398  MEMB      133             0.0000000000
     15498       133  OSM       H9F           -23.1937302689       -4.7662574078      -10.6558141202  MEMB      133             0.0000000000
     15499       133  OSM       C10F          -22.1802634691       -3.5945987001       -9.6168825285  MEMB      133             0.0000000000
     15500       133  OSM       H10F          -21.6397544717       -4.3421516500       -8.9717625857  MEMB      133             0.0000000000
     15501       133  OSM       C11F          -22.3824924574       -2.2553035321       -8.9900227988  MEMB      133             0.0000000000
     15502       133  OSM       H11F          -23.1080286823       -1.4749321141       -9.1327272792  MEMB      133             0.0000000000
     15503       133  OSM       H11G          -21.3125832002       -1.9512906335       -9.0939542793  MEMB      133             0.0000000000
     15504       133  OSM       C12F          -23.2565170856       -2.1039228107       -7.4777982611  MEMB      133             0.0000000000
     15505       133  OSM       H12F          -22.7189390528       -3.1157212502       -7.6782688297  MEMB      133             0.0000000000
     15506       133  OSM       H12G          -24.0724799733       -1.8138802189       -7.1087274214  MEMB      133             0.0000000000
     15507       133  OSM       C13F          -22.5030783085       -1.1494142635       -5.0361860650  MEMB      133             0.0000000000
     15508       133  OSM       H13F          -22.5447089864       -0.0013001757       -5.1326132389  MEMB      133             0.0000000000
     15509       133  OSM       H13G          -21.1048968638       -1.0801036017       -5.0271428577  MEMB      133             0.0000000000
     15510       133  OSM       C14F          -22.7973705875       -1.3375812885       -3.9519324587  MEMB      133             0.0000000000
     15511       133  OSM       H14F          -21.8280188905       -1.7962519794       -3.7619745316  MEMB      133             0.0000000000
     15512       133  OSM       H14G          -23.7426982053       -1.7444451173       -3.9455212708  MEMB      133             0.0000000000
     15513       133  OSM       C15F          -22.3474364740       -0.3599647684       -3.3043638649  MEMB      133             0.0000000000
     15514       133  OSM       H15F          -21.3981176220        0.1290400544       -3.8588690151  MEMB      133             0.0000000000
     15515       133  OSM       H15G          -22.2133157931       -1.0196833022       -2.3541165722  MEMB      133             0.0000000000
     15516       133  OSM       C16F          -22.9823354589        0.8456615233       -3.2225812577  MEMB      133             0.0000000000
     15517       133  OSM       H16F          -23.3100102371        1.2907882976       -4.1442780940  MEMB      133             0.0000000000
     15518       133  OSM       H16G          -22.2116300560        1.6284327074       -3.0143728742  MEMB      133             0.0000000000
     15519       133  OSM       C17F          -23.9640149728        0.3124095078       -2.3310386729  MEMB      133             0.0000000000
     15520       133  OSM       H17F          -23.7881031983        0.1726382229       -1.2783602499  MEMB      133             0.0000000000
     15521       133  OSM       H17G          -24.5560177941       -0.5488714927       -2.6344587229  MEMB      133             0.0000000000
     15522       133  OSM       C18F          -24.5066099302        1.4954204160       -2.1665761000  MEMB      133             0.0000000000
     15523       133  OSM       H18F          -25.1875842739        1.4149752782       -1.2968681075  MEMB      133             0.0000000000
     15524       133  OSM       H18G          -25.0076036006        1.9653082183       -3.0268194460  MEMB      133             0.0000000000
     15525       133  OSM       H18H          -23.6848648553        2.2358215918       -1.8523701132  MEMB      133             0.0000000000
     15526       134  OSM       N              26.7597176618       -1.3471871826      -22.4401267865  MEMB      134             0.0000000000
     15527       134  OSM       C15            27.9928577155       -0.6839323821      -21.9058903907  MEMB      134             0.0000000000
     15528       134  OSM       H15A           27.7863154736        0.3585048123      -21.6592253116  MEMB      134             0.0000000000
     15529       134  OSM       H15B           28.8326415307       -0.6880210260      -22.5914055600  MEMB      134             0.0000000000
     15530       134  OSM       H15C           28.3200147072       -1.1294526089      -20.9650693454  MEMB      134             0.0000000000
     15531       134  OSM       C14            26.3150945845       -0.6301072799      -23.6828212760  MEMB      134             0.0000000000
     15532       134  OSM       H14A           25.2586074327       -0.7606463655      -23.8768357999  MEMB      134             0.0000000000
     15533       134  OSM       H14B           26.8264326758       -0.9828042535      -24.5706228673  MEMB      134             0.0000000000
     15534       134  OSM       H14C           26.4984964108        0.4365774954      -23.6033597225  MEMB      134             0.0000000000
     15535       134  OSM       C13            27.0369991714       -2.7772760770      -22.7869889986  MEMB      134             0.0000000000
     15536       134  OSM       H13A           27.3971945805       -3.3277063812      -21.9128395858  MEMB      134             0.0000000000
     15537       134  OSM       H13B           27.7714848697       -2.8386139798      -23.5701556006  MEMB      134             0.0000000000
     15538       134  OSM       H13C           26.1327822498       -3.2809422973      -23.1311574448  MEMB      134             0.0000000000
     15539       134  OSM       C12            25.6558552388       -1.2993113876      -21.4005970684  MEMB      134             0.0000000000
     15540       134  OSM       H12A           24.8375595331       -1.9029192303      -21.7846544196  MEMB      134             0.0000000000
     15541       134  OSM       H12B           25.3540904661       -0.2699855392      -21.3322104532  MEMB      134             0.0000000000
     15542       134  OSM       C11            25.8779365932       -1.7373775247      -19.9206621278  MEMB      134             0.0000000000
     15543       134  OSM       H11A           24.9669556700       -1.4622912806      -19.3355172354  MEMB      134             0.0000000000
     15544       134  OSM       H11B           26.6883397093       -1.1319964698      -19.4652400680  MEMB      134             0.0000000000
     15545       134  OSM       P              25.0346957715       -4.2209631937      -19.8605597742  MEMB      134             0.0000000000
     15546       134  OSM       O13            23.8740349906       -3.5469209616      -20.4985288311  MEMB      134             0.0000000000
     15547       134  OSM       O14            25.6033642331       -5.4008800737      -20.5537005916  MEMB      134             0.0000000000
     15548       134  OSM       O11            24.7456367917       -4.5595637826      -18.3356811833  MEMB      134             0.0000000000
     15549       134  OSM       O12            26.1811176648       -3.1225391130      -19.7738390746  MEMB      134             0.0000000000
     15550       134  OSM       C1S            25.8404191058       -4.6608537283      -17.4010454256  MEMB      134             0.0000000000
     15551       134  OSM       H1S            26.7972386617       -4.8105951922      -17.9097563558  MEMB      134             0.0000000000
     15552       134  OSM       H1T            25.6823618203       -5.5209725750      -16.7443214816  MEMB      134             0.0000000000
     15553       134  OSM       NF             27.0865221131       -3.6426364650      -15.4606854843  MEMB      134             0.0000000000
     15554       134  OSM       HNF            26.6933779766       -3.7127775542      -14.5567996208  MEMB      134             0.0000000000
     15555       134  OSM       C2S            26.0875438575       -3.4453796480      -16.4544769790  MEMB      134             0.0000000000
     15556       134  OSM       H2S            26.3230342528       -2.6036165808      -17.1525696240  MEMB      134             0.0000000000
     15557       134  OSM       C3S            24.8834347295       -3.1312640726      -15.6705765125  MEMB      134             0.0000000000
     15558       134  OSM       H3S            24.3445175829       -3.9204633224      -15.1615721739  MEMB      134             0.0000000000
     15559       134  OSM       O3             23.9342324167       -2.8999184847      -16.5403651671  MEMB      134             0.0000000000
     15560       134  OSM       HO3            24.2605454994       -2.9416635149      -17.4574931598  MEMB      134             0.0000000000
     15561       134  OSM       C4S            24.9080381375       -1.8746962112      -14.8685910654  MEMB      134             0.0000000000
     15562       134  OSM       H4S            24.6656455625       -0.9377344445      -15.3924655875  MEMB      134             0.0000000000
     15563       134  OSM       C5S            25.0451762800       -1.8770097775      -13.5433823265  MEMB      134             0.0000000000
     15564       134  OSM       H5S            25.1210758533       -2.8534579736      -13.0403240118  MEMB      134             0.0000000000
     15565       134  OSM       C6S            25.0533238729       -0.6318702808      -12.6998520568  MEMB      134             0.0000000000
     15566       134  OSM       H6S            24.6304125040       -0.8696549128      -11.6991576077  MEMB      134             0.0000000000
     15567       134  OSM       H6T            24.5490787266        0.2400629746      -13.1626843604  MEMB      134             0.0000000000
     15568       134  OSM       C7S            26.4294112268       -0.1349525026      -12.4389220752  MEMB      134             0.0000000000
     15569       134  OSM       H7S            26.5438814135        0.9349468437      -12.1202445953  MEMB      134             0.0000000000
     15570       134  OSM       H7T            27.0629982741       -0.3144313231      -13.3167936851  MEMB      134             0.0000000000
     15571       134  OSM       C8S            26.9359160126       -0.9245121911      -11.3082543523  MEMB      134             0.0000000000
     15572       134  OSM       H8S            27.9307539564       -0.5803715969      -11.3061162905  MEMB      134             0.0000000000
     15573       134  OSM       H8T            27.1327587624       -2.0050559553      -11.4769254268  MEMB      134             0.0000000000
     15574       134  OSM       C9S            26.3668848507       -0.4518750707       -9.9703198645  MEMB      134             0.0000000000
     15575       134  OSM       H9S            25.4563574377       -0.9942746345       -9.7593513848  MEMB      134             0.0000000000
     15576       134  OSM       H9T            26.5198731059        0.6542709729       -9.7411964258  MEMB      134             0.0000000000
     15577       134  OSM       C10S           27.0419134208       -1.1715056004       -8.9156248430  MEMB      134             0.0000000000
     15578       134  OSM       H10S           27.8666968801       -0.4843399319       -9.2470592563  MEMB      134             0.0000000000
     15579       134  OSM       H10T           27.2212482926       -2.2162890405       -9.2228220809  MEMB      134             0.0000000000
     15580       134  OSM       C11S           26.7829292092       -1.2009675485       -7.4030616273  MEMB      134             0.0000000000
     15581       134  OSM       H11S           26.6985493320       -0.1282532286       -7.2038063021  MEMB      134             0.0000000000
     15582       134  OSM       H11T           27.5259384101       -1.7133265981       -6.6827097460  MEMB      134             0.0000000000
     15583       134  OSM       C12S           25.5835761207       -1.8837353021       -7.0969032446  MEMB      134             0.0000000000
     15584       134  OSM       H12S           25.8660004885       -2.8795960767       -7.4932854126  MEMB      134             0.0000000000
     15585       134  OSM       H12T           24.9620069714       -1.2660713777       -7.7589568361  MEMB      134             0.0000000000
     15586       134  OSM       C13S           25.2209408976       -1.9178436345       -5.6262042972  MEMB      134             0.0000000000
     15587       134  OSM       H13S           26.0114829406       -2.5144829311       -5.1159497368  MEMB      134             0.0000000000
     15588       134  OSM       H13T           24.2462505763       -2.4233702167       -5.6119854658  MEMB      134             0.0000000000
     15589       134  OSM       C14S           25.0553402830       -0.6134703134       -4.8496362560  MEMB      134             0.0000000000
     15590       134  OSM       H14S           24.3185746133        0.0908496237       -5.2815582666  MEMB      134             0.0000000000
     15591       134  OSM       H14T           26.0293256745       -0.1507509129       -4.9173917043  MEMB      134             0.0000000000
     15592       134  OSM       C15S           24.8154662055       -0.8432600344       -3.3559342411  MEMB      134             0.0000000000
     15593       134  OSM       H15S           23.8419173520       -1.3626302293       -3.2154493190  MEMB      134             0.0000000000
     15594       134  OSM       H15T           24.7463847971        0.1438920671       -2.8442420318  MEMB      134             0.0000000000
     15595       134  OSM       C16S           25.8747367016       -1.7645289654       -2.7243159623  MEMB      134             0.0000000000
     15596       134  OSM       H16S           25.8395807011       -2.7576655341       -3.1846398798  MEMB      134             0.0000000000
     15597       134  OSM       H16T           25.5795544891       -2.0034259295       -1.7328473852  MEMB      134             0.0000000000
     15598       134  OSM       C17S           27.3132116598       -1.2655828561       -2.6696548671  MEMB      134             0.0000000000
     15599       134  OSM       H17S           27.3400817521       -0.2569512623       -2.1792564367  MEMB      134             0.0000000000
     15600       134  OSM       H17T           27.5732508812       -1.1501088218       -3.7359131983  MEMB      134             0.0000000000
     15601       134  OSM       C18S           28.3385783039       -2.2467240848       -2.0551200064  MEMB      134             0.0000000000
     15602       134  OSM       H18S           28.3310022903       -3.2223700330       -2.5473202052  MEMB      134             0.0000000000
     15603       134  OSM       H18T           28.1610128082       -2.5056674552       -0.9955882136  MEMB      134             0.0000000000
     15604       134  OSM       H18U           29.3648159720       -1.8588165858       -2.1282260414  MEMB      134             0.0000000000
     15605       134  OSM       C1F            28.3683778412       -3.7737569483      -15.6255175831  MEMB      134             0.0000000000
     15606       134  OSM       OF             28.9434192344       -3.3136452255      -16.5938866952  MEMB      134             0.0000000000
     15607       134  OSM       C2F            29.0617888972       -4.4724467485      -14.5016578993  MEMB      134             0.0000000000
     15608       134  OSM       H2F            29.4470250514       -3.6760235173      -13.8328618629  MEMB      134             0.0000000000
     15609       134  OSM       H2G            29.8745011924       -5.1074598255      -14.9077441190  MEMB      134             0.0000000000
     15610       134  OSM       C3F            28.1519261435       -5.3948438016      -13.6578601542  MEMB      134             0.0000000000
     15611       134  OSM       H3F            27.7441269224       -6.1832091632      -14.3431054428  MEMB      134             0.0000000000
     15612       134  OSM       H3G            27.3069088795       -4.8034690568      -13.2466971693  MEMB      134             0.0000000000
     15613       134  OSM       C4F            28.9020978394       -6.0580872088      -12.4810253865  MEMB      134             0.0000000000
     15614       134  OSM       H4F            30.0039885181       -6.0788798738      -12.6253422044  MEMB      134             0.0000000000
     15615       134  OSM       H4G            28.5428702244       -7.0939732186      -12.4669007900  MEMB      134             0.0000000000
     15616       134  OSM       C5F            28.5604356251       -5.4886680852      -11.1001733662  MEMB      134             0.0000000000
     15617       134  OSM       H5F            27.5125508004       -5.7134428213      -10.8768869324  MEMB      134             0.0000000000
     15618       134  OSM       H5G            28.6262856480       -4.3933984924      -11.1973209353  MEMB      134             0.0000000000
     15619       134  OSM       C6F            29.4193621494       -5.9663710658       -9.9065861443  MEMB      134             0.0000000000
     15620       134  OSM       H6F            30.4761860190       -5.7884569555      -10.1889099056  MEMB      134             0.0000000000
     15621       134  OSM       H6G            29.2574889203       -7.0521073159       -9.7211787507  MEMB      134             0.0000000000
     15622       134  OSM       C7F            29.1243271115       -5.1185943654       -8.6523616875  MEMB      134             0.0000000000
     15623       134  OSM       H7F            28.0693838406       -5.1183564068       -8.5059562422  MEMB      134             0.0000000000
     15624       134  OSM       H7G            29.4200577248       -4.0968396457       -8.8398727255  MEMB      134             0.0000000000
     15625       134  OSM       C8F            29.5633494361       -5.5303455237       -7.2465353270  MEMB      134             0.0000000000
     15626       134  OSM       H8F            30.6471060335       -5.7198800758       -7.2979994803  MEMB      134             0.0000000000
     15627       134  OSM       H8G            29.0204701220       -6.4859815911       -7.0656221443  MEMB      134             0.0000000000
     15628       134  OSM       C9F            29.2085112941       -4.5019621017       -6.1760815545  MEMB      134             0.0000000000
     15629       134  OSM       H9F            29.7906251873       -3.5876735247       -6.0702866675  MEMB      134             0.0000000000
     15630       134  OSM       C10F           28.2950403906       -4.6736474754       -5.2384376290  MEMB      134             0.0000000000
     15631       134  OSM       H10F           28.1504806880       -3.9693564783       -4.4062670338  MEMB      134             0.0000000000
     15632       134  OSM       C11F           27.5193715845       -5.9122612164       -5.1322965454  MEMB      134             0.0000000000
     15633       134  OSM       H11F           28.2532041971       -6.5468714112       -4.6634125380  MEMB      134             0.0000000000
     15634       134  OSM       H11G           27.2194633593       -6.4768741532       -6.0478594848  MEMB      134             0.0000000000
     15635       134  OSM       C12F           26.2033071271       -5.5656523605       -4.5003819205  MEMB      134             0.0000000000
     15636       134  OSM       H12F           25.6390330010       -6.4756451182       -4.6092134703  MEMB      134             0.0000000000
     15637       134  OSM       H12G           25.7974307534       -4.5998615262       -4.9248816950  MEMB      134             0.0000000000
     15638       134  OSM       C13F           25.7800052438       -5.5590465553       -3.0558812757  MEMB      134             0.0000000000
     15639       134  OSM       H13F           24.9569442015       -4.8816307788       -2.8112739299  MEMB      134             0.0000000000
     15640       134  OSM       H13G           26.5863643003       -4.7981237246       -2.9340722445  MEMB      134             0.0000000000
     15641       134  OSM       C14F           25.6478981191       -6.9618666305       -2.2138919290  MEMB      134             0.0000000000
     15642       134  OSM       H14F           26.2700947278       -7.9193173951       -2.6273892677  MEMB      134             0.0000000000
     15643       134  OSM       H14G           24.7245530878       -7.3785932653       -2.0934017423  MEMB      134             0.0000000000
     15644       134  OSM       C15F           25.4909495459       -6.4936078912       -0.6871516442  MEMB      134             0.0000000000
     15645       134  OSM       H15F           24.4842191872       -6.2057341426       -0.4087874603  MEMB      134             0.0000000000
     15646       134  OSM       H15G           26.2607432019       -5.8251065759       -0.3356665134  MEMB      134             0.0000000000
     15647       134  OSM       C16F           25.9180351902       -7.1362793762        0.5807927982  MEMB      134             0.0000000000
     15648       134  OSM       H16F           26.7941183849       -7.2751256591        0.4719607882  MEMB      134             0.0000000000
     15649       134  OSM       H16G           25.9024697980       -8.1934174026        0.4168445047  MEMB      134             0.0000000000
     15650       134  OSM       C17F           26.1107617732       -6.5817653590        2.0133517261  MEMB      134             0.0000000000
     15651       134  OSM       H17F           26.3783593903       -7.3585122923        2.7786553116  MEMB      134             0.0000000000
     15652       134  OSM       H17G           25.1098643103       -6.2432469646        2.2069633265  MEMB      134             0.0000000000
     15653       134  OSM       C18F           27.0403652188       -5.5091436480        2.3309764024  MEMB      134             0.0000000000
     15654       134  OSM       H18F           27.2540930107       -5.5457046343        3.4152223703  MEMB      134             0.0000000000
     15655       134  OSM       H18G           26.4830065716       -4.6606926149        2.1281264076  MEMB      134             0.0000000000
     15656       134  OSM       H18H           27.9475586844       -5.5944346627        1.7342336302  MEMB      134             0.0000000000
     15657       135  SLPC      N             -19.8259686936      -15.1360549010      -18.5095752102  MEMB      135             0.0000000000
     15658       135  SLPC      C13           -19.8359271241      -16.1502407879      -19.6350706297  MEMB      135             0.0000000000
     15659       135  SLPC      H13A          -20.2219355771      -17.1042319966      -19.2982152028  MEMB      135             0.0000000000
     15660       135  SLPC      H13B          -20.4373314707      -15.8244726520      -20.4747225146  MEMB      135             0.0000000000
     15661       135  SLPC      H13C          -18.8311405665      -16.3037682927      -20.0177793565  MEMB      135             0.0000000000
     15662       135  SLPC      C14           -19.2083587741      -13.8702945273      -18.9316549277  MEMB      135             0.0000000000
     15663       135  SLPC      H14A          -18.2037148574      -13.9705196621      -19.3318078421  MEMB      135             0.0000000000
     15664       135  SLPC      H14B          -19.7692104553      -13.3845546038      -19.7181821270  MEMB      135             0.0000000000
     15665       135  SLPC      H14C          -19.0977593737      -13.1059410221      -18.1513200218  MEMB      135             0.0000000000
     15666       135  SLPC      C15           -19.0178239919      -15.7116870373      -17.3881876679  MEMB      135             0.0000000000
     15667       135  SLPC      H15A          -19.0619116726      -15.0885194730      -16.4986660584  MEMB      135             0.0000000000
     15668       135  SLPC      H15B          -19.4717588870      -16.6526151127      -17.0801705551  MEMB      135             0.0000000000
     15669       135  SLPC      H15C          -18.0000398924      -15.9018167827      -17.6717550864  MEMB      135             0.0000000000
     15670       135  SLPC      C12           -21.2246084718      -14.7473742562      -18.0460370879  MEMB      135             0.0000000000
     15671       135  SLPC      H12A          -21.6677025053      -14.1111187539      -18.8042560937  MEMB      135             0.0000000000
     15672       135  SLPC      H12B          -21.1327064642      -14.1108623826      -17.1658613067  MEMB      135             0.0000000000
     15673       135  SLPC      C11           -22.2330739895      -15.8649012745      -17.7380932151  MEMB      135             0.0000000000
     15674       135  SLPC      H11A          -22.4716212434      -16.3602615390      -18.7050357591  MEMB      135             0.0000000000
     15675       135  SLPC      H11B          -23.1764761962      -15.4226161903      -17.3318681724  MEMB      135             0.0000000000
     15676       135  SLPC      P             -21.7706137510      -16.6328844823      -15.2709948253  MEMB      135             0.0000000000
     15677       135  SLPC      O13           -20.4706897932      -17.0622442104      -14.7310934521  MEMB      135             0.0000000000
     15678       135  SLPC      O14           -22.2612527073      -15.2855584204      -14.9139480853  MEMB      135             0.0000000000
     15679       135  SLPC      O12           -21.6897239150      -16.8200419713      -16.8499465499  MEMB      135             0.0000000000
     15680       135  SLPC      O11           -22.8835043587      -17.6954101774      -14.9205539186  MEMB      135             0.0000000000
     15681       135  SLPC      C1            -24.2570995877      -17.2975510388      -14.9635038423  MEMB      135             0.0000000000
     15682       135  SLPC      HA            -24.4283637140      -16.3038923867      -15.4405027268  MEMB      135             0.0000000000
     15683       135  SLPC      HB            -24.8020810179      -18.0395520443      -15.5836167603  MEMB      135             0.0000000000
     15684       135  SLPC      C2            -24.8904997381      -17.1694994872      -13.5503408251  MEMB      135             0.0000000000
     15685       135  SLPC      HS            -25.8989824829      -16.8005498671      -13.6058234122  MEMB      135             0.0000000000
     15686       135  SLPC      O21           -24.1656303727      -16.3418070031      -12.6734665171  MEMB      135             0.0000000000
     15687       135  SLPC      C21           -24.3937303628      -15.1028658980      -12.6454406095  MEMB      135             0.0000000000
     15688       135  SLPC      O22           -25.2332160653      -14.4551243990      -13.2525139681  MEMB      135             0.0000000000
     15689       135  SLPC      C22           -23.4085415538      -14.5522494916      -11.6328014403  MEMB      135             0.0000000000
     15690       135  SLPC      H2R           -22.4656048965      -15.1039778852      -11.6725687758  MEMB      135             0.0000000000
     15691       135  SLPC      H2S           -23.3488509914      -13.5123563543      -12.0171001585  MEMB      135             0.0000000000
     15692       135  SLPC      C3            -25.0375270131      -18.4711880057      -12.8435033349  MEMB      135             0.0000000000
     15693       135  SLPC      HX            -25.4905738758      -19.3053837359      -13.4380642247  MEMB      135             0.0000000000
     15694       135  SLPC      HY            -25.6738662809      -18.2905699597      -11.9538347593  MEMB      135             0.0000000000
     15695       135  SLPC      O31           -23.6821083389      -18.6990726334      -12.5481853463  MEMB      135             0.0000000000
     15696       135  SLPC      C31           -23.5022149660      -19.2882787358      -11.4889420299  MEMB      135             0.0000000000
     15697       135  SLPC      O32           -24.3447585315      -19.3948156915      -10.5902237510  MEMB      135             0.0000000000
     15698       135  SLPC      C32           -22.0607330925      -19.8551516916      -11.6668750678  MEMB      135             0.0000000000
     15699       135  SLPC      H2X           -21.8206957143      -20.8350230111      -12.1116269017  MEMB      135             0.0000000000
     15700       135  SLPC      H2Y           -21.6266614747      -20.1051534241      -10.7099201275  MEMB      135             0.0000000000
     15701       135  SLPC      C23           -23.7114125638      -14.5863983908      -10.1047929174  MEMB      135             0.0000000000
     15702       135  SLPC      H3R           -24.5942521844      -14.2021969347      -10.3201517892  MEMB      135             0.0000000000
     15703       135  SLPC      H3S           -23.4253726834      -13.7120703173       -9.5107054314  MEMB      135             0.0000000000
     15704       135  SLPC      C24           -24.1284123973      -15.9032841233       -9.4116032396  MEMB      135             0.0000000000
     15705       135  SLPC      H4R           -23.2079153090      -16.4557561594       -9.3559389755  MEMB      135             0.0000000000
     15706       135  SLPC      H4S           -24.9184333544      -16.4111081624      -10.0166193626  MEMB      135             0.0000000000
     15707       135  SLPC      C25           -24.7139376932      -15.8301632298       -8.0092004214  MEMB      135             0.0000000000
     15708       135  SLPC      H5R           -25.8023646281      -15.5961655817       -8.2013708648  MEMB      135             0.0000000000
     15709       135  SLPC      H5S           -24.1554523505      -15.0616574302       -7.4305778671  MEMB      135             0.0000000000
     15710       135  SLPC      C26           -24.8460004721      -16.9953511282       -7.0456957209  MEMB      135             0.0000000000
     15711       135  SLPC      H6R           -25.4405756634      -16.7103465796       -6.1247399255  MEMB      135             0.0000000000
     15712       135  SLPC      H6S           -23.8594631541      -17.3776984350       -6.7877231415  MEMB      135             0.0000000000
     15713       135  SLPC      C27           -25.5925327737      -18.0688065230       -7.7413174221  MEMB      135             0.0000000000
     15714       135  SLPC      H7R           -25.2410853049      -18.3155549170       -8.7391309504  MEMB      135             0.0000000000
     15715       135  SLPC      H7S           -26.3735034551      -17.4360675329       -8.0772402141  MEMB      135             0.0000000000
     15716       135  SLPC      C28           -25.7901304932      -19.3485203682       -6.9244388894  MEMB      135             0.0000000000
     15717       135  SLPC      H8R           -24.7517080868      -19.5408136721       -6.5780434605  MEMB      135             0.0000000000
     15718       135  SLPC      H8S           -26.0858914948      -20.1463316680       -7.6447567506  MEMB      135             0.0000000000
     15719       135  SLPC      C29           -26.7379489725      -19.3432975183       -5.7451153289  MEMB      135             0.0000000000
     15720       135  SLPC      H9R           -27.7084374089      -18.9426205640       -5.8761608549  MEMB      135             0.0000000000
     15721       135  SLPC      C210          -26.5660840448      -19.7859409628       -4.5275706347  MEMB      135             0.0000000000
     15722       135  SLPC      H10R          -27.3326189230      -19.7632034553       -3.7493905698  MEMB      135             0.0000000000
     15723       135  SLPC      C211          -25.3497273164      -20.3994909824       -4.1010280131  MEMB      135             0.0000000000
     15724       135  SLPC      H11R          -25.0313119087      -21.0317959454       -4.9190787100  MEMB      135             0.0000000000
     15725       135  SLPC      H11S          -25.7375542982      -21.0979211455       -3.3231427210  MEMB      135             0.0000000000
     15726       135  SLPC      C212          -24.1344869951      -19.6474298305       -3.6547232554  MEMB      135             0.0000000000
     15727       135  SLPC      H12R          -23.2759335090      -19.6170760015       -4.3442065119  MEMB      135             0.0000000000
     15728       135  SLPC      C213          -24.0048133922      -19.1878673595       -2.4152560799  MEMB      135             0.0000000000
     15729       135  SLPC      H13R          -23.0746960297      -18.7415280834       -2.0698206217  MEMB      135             0.0000000000
     15730       135  SLPC      C214          -25.0268754588      -19.3539590410       -1.3531481254  MEMB      135             0.0000000000
     15731       135  SLPC      H14R          -25.9858463832      -19.7943790012       -1.7585451144  MEMB      135             0.0000000000
     15732       135  SLPC      H14S          -25.2802574820      -18.4277774004       -0.8335369066  MEMB      135             0.0000000000
     15733       135  SLPC      C215          -24.3984703791      -20.1541409991       -0.2385641090  MEMB      135             0.0000000000
     15734       135  SLPC      H15R          -23.4494994721      -20.6569085983       -0.2898414482  MEMB      135             0.0000000000
     15735       135  SLPC      H15S          -25.1189333317      -20.9303500850       -0.4028860643  MEMB      135             0.0000000000
     15736       135  SLPC      C216          -24.1367923152      -19.6037128722        1.1446222587  MEMB      135             0.0000000000
     15737       135  SLPC      H16R          -25.0762897236      -19.2671336692        1.6224079263  MEMB      135             0.0000000000
     15738       135  SLPC      H16S          -23.5343475366      -18.7232822311        0.9319846742  MEMB      135             0.0000000000
     15739       135  SLPC      C217          -23.3165629909      -20.5471584659        2.1033799502  MEMB      135             0.0000000000
     15740       135  SLPC      H17R          -23.3504608893      -20.0235286988        3.0551147738  MEMB      135             0.0000000000
     15741       135  SLPC      H17S          -22.2725129681      -20.6247754119        1.7236628275  MEMB      135             0.0000000000
     15742       135  SLPC      C218          -23.6587878352      -22.0077055192        2.4967044381  MEMB      135             0.0000000000
     15743       135  SLPC      H18R          -23.4201545879      -22.5676437808        1.5821916615  MEMB      135             0.0000000000
     15744       135  SLPC      H18S          -24.6060057420      -22.2113420664        3.0356562010  MEMB      135             0.0000000000
     15745       135  SLPC      H18T          -23.2412679110      -22.6409275893        3.2762185718  MEMB      135             0.0000000000
     15746       135  SLPC      C33           -21.1827496379      -18.7987258314      -11.9895099114  MEMB      135             0.0000000000
     15747       135  SLPC      H3X           -21.5458323555      -18.3847092231      -12.9157463657  MEMB      135             0.0000000000
     15748       135  SLPC      H3Y           -20.2304762774      -19.2238505423      -12.3217812492  MEMB      135             0.0000000000
     15749       135  SLPC      C34           -21.1106888901      -17.9961750149      -10.6877324406  MEMB      135             0.0000000000
     15750       135  SLPC      H4X           -20.9080616814      -18.5805902318       -9.7431538082  MEMB      135             0.0000000000
     15751       135  SLPC      H4Y           -22.0711526308      -17.5438036455      -10.4432485896  MEMB      135             0.0000000000
     15752       135  SLPC      C35           -19.9547685432      -17.1027144597      -10.9633854794  MEMB      135             0.0000000000
     15753       135  SLPC      H5X           -20.1567790831      -16.5279751046      -11.8740920185  MEMB      135             0.0000000000
     15754       135  SLPC      H5Y           -19.1261576673      -17.7417270202      -11.3410301512  MEMB      135             0.0000000000
     15755       135  SLPC      C36           -19.5656545122      -16.1869898670       -9.8316716771  MEMB      135             0.0000000000
     15756       135  SLPC      H6X           -18.8002443482      -15.4803468229      -10.1799384152  MEMB      135             0.0000000000
     15757       135  SLPC      H6Y           -19.1715628510      -16.5916649474       -8.9109151189  MEMB      135             0.0000000000
     15758       135  SLPC      C37           -20.6656458115      -15.5582013057       -9.1440136996  MEMB      135             0.0000000000
     15759       135  SLPC      H7X           -21.2760498550      -16.3529366553       -8.6479984411  MEMB      135             0.0000000000
     15760       135  SLPC      H7Y           -21.2043093422      -14.9962075408       -9.9262452817  MEMB      135             0.0000000000
     15761       135  SLPC      C38           -20.0916540412      -14.7107275521       -8.0604855868  MEMB      135             0.0000000000
     15762       135  SLPC      H8X           -19.4598651512      -13.8792832580       -8.4644626664  MEMB      135             0.0000000000
     15763       135  SLPC      H8Y           -19.5403064959      -15.2247200186       -7.2501589662  MEMB      135             0.0000000000
     15764       135  SLPC      C39           -21.2776662680      -14.1823696925       -7.4207837020  MEMB      135             0.0000000000
     15765       135  SLPC      H9X           -22.0989270983      -14.8372862044       -7.0848683077  MEMB      135             0.0000000000
     15766       135  SLPC      H9Y           -21.7164663207      -13.7165431116       -8.3148089429  MEMB      135             0.0000000000
     15767       135  SLPC      C310          -20.7440591848      -13.2690668862       -6.3818844596  MEMB      135             0.0000000000
     15768       135  SLPC      H10X          -21.6936872044      -12.9841292977       -5.9677037168  MEMB      135             0.0000000000
     15769       135  SLPC      H10Y          -20.0695058429      -12.5041957176       -6.8415103576  MEMB      135             0.0000000000
     15770       135  SLPC      C311          -20.1298202816      -13.6080673288       -5.0777632899  MEMB      135             0.0000000000
     15771       135  SLPC      H11X          -20.0581602021      -12.7039846294       -4.4131676887  MEMB      135             0.0000000000
     15772       135  SLPC      H11Y          -19.1274811718      -13.9216822527       -5.4127357630  MEMB      135             0.0000000000
     15773       135  SLPC      C312          -20.9147926149      -14.7065263278       -4.4178411547  MEMB      135             0.0000000000
     15774       135  SLPC      H12X          -20.1436541635      -15.1611542408       -3.7749633013  MEMB      135             0.0000000000
     15775       135  SLPC      H12Y          -21.2340169550      -15.4251534936       -5.2063645065  MEMB      135             0.0000000000
     15776       135  SLPC      C313          -22.1434963572      -14.2778517618       -3.6053704448  MEMB      135             0.0000000000
     15777       135  SLPC      H13X          -22.9597285945      -14.0672366864       -4.3136330661  MEMB      135             0.0000000000
     15778       135  SLPC      H13Y          -21.9560104035      -13.3675356818       -2.9959610521  MEMB      135             0.0000000000
     15779       135  SLPC      C314          -22.5628874050      -15.3673564169       -2.6326031456  MEMB      135             0.0000000000
     15780       135  SLPC      H14X          -21.6461564729      -15.5640451688       -2.0233448643  MEMB      135             0.0000000000
     15781       135  SLPC      H14Y          -22.8151561783      -16.3294763673       -3.1164151939  MEMB      135             0.0000000000
     15782       135  SLPC      C315          -23.5791152242      -14.9733923630       -1.5743741517  MEMB      135             0.0000000000
     15783       135  SLPC      H15X          -23.1498526914      -14.1904148796       -0.8978793225  MEMB      135             0.0000000000
     15784       135  SLPC      H15Y          -23.9716611422      -15.9109962807       -1.1629502056  MEMB      135             0.0000000000
     15785       135  SLPC      C316          -24.9771112635      -14.5447739308       -1.7108240073  MEMB      135             0.0000000000
     15786       135  SLPC      H16X          -24.6798867852      -13.4691665281       -1.9261597265  MEMB      135             0.0000000000
     15787       135  SLPC      H16Y          -25.5265231611      -14.4105979843       -0.7788516164  MEMB      135             0.0000000000
     15788       135  SLPC      C317          -25.8820678835      -15.3433392037       -2.6879510882  MEMB      135             0.0000000000
     15789       135  SLPC      H17X          -25.3303411251      -15.5194128823       -3.6627804611  MEMB      135             0.0000000000
     15790       135  SLPC      H17Y          -26.8435227818      -14.7188690997       -2.7751169973  MEMB      135             0.0000000000
     15791       135  SLPC      C318          -26.6683447578      -16.5046866400       -2.5846015355  MEMB      135             0.0000000000
     15792       135  SLPC      H18X          -25.8639001833      -17.2294302917       -2.4988095722  MEMB      135             0.0000000000
     15793       135  SLPC      H18Y          -27.2538048175      -16.5831890069       -3.5602232342  MEMB      135             0.0000000000
     15794       135  SLPC      H18Z          -27.3133018092      -16.2378582642       -1.7202999953  MEMB      135             0.0000000000
     15795       136  OSM       N              16.2854503954       19.9390877507      -21.7186338440  MEMB      136             0.0000000000
     15796       136  OSM       C15            16.2346151750       18.5453727148      -22.2549418951  MEMB      136             0.0000000000
     15797       136  OSM       H15A           15.7688172099       18.4889191775      -23.2263409050  MEMB      136             0.0000000000
     15798       136  OSM       H15B           15.6712309323       17.9213688430      -21.5770903510  MEMB      136             0.0000000000
     15799       136  OSM       H15C           17.2499143433       18.1413042517      -22.3219295257  MEMB      136             0.0000000000
     15800       136  OSM       C14            17.0486270425       20.7637834134      -22.6677580133  MEMB      136             0.0000000000
     15801       136  OSM       H14A           16.7132797513       20.6376475085      -23.6852814200  MEMB      136             0.0000000000
     15802       136  OSM       H14B           18.1110679439       20.4847277423      -22.6269026720  MEMB      136             0.0000000000
     15803       136  OSM       H14C           17.0058145991       21.8044696725      -22.3851328672  MEMB      136             0.0000000000
     15804       136  OSM       C13            14.9260238609       20.5045374841      -21.5626987314  MEMB      136             0.0000000000
     15805       136  OSM       H13A           14.9670309348       21.4169516525      -20.9875054197  MEMB      136             0.0000000000
     15806       136  OSM       H13B           14.2582670291       19.7923870108      -21.0708219434  MEMB      136             0.0000000000
     15807       136  OSM       H13C           14.5027542452       20.7565966231      -22.5214517610  MEMB      136             0.0000000000
     15808       136  OSM       C12            16.9376964945       19.9729149390      -20.3416722992  MEMB      136             0.0000000000
     15809       136  OSM       H12A           16.4915975026       19.1928919146      -19.7261449769  MEMB      136             0.0000000000
     15810       136  OSM       H12B           16.7369389039       20.9398421171      -19.9189186258  MEMB      136             0.0000000000
     15811       136  OSM       C11            18.4512327862       19.7905180512      -20.1909279285  MEMB      136             0.0000000000
     15812       136  OSM       H11A           18.6434981519       19.8685521872      -19.0820268255  MEMB      136             0.0000000000
     15813       136  OSM       H11B           19.0541537166       20.5988616232      -20.6447118785  MEMB      136             0.0000000000
     15814       136  OSM       P              20.2205251183       17.9506978620      -20.5273539158  MEMB      136             0.0000000000
     15815       136  OSM       O13            20.1957631318       16.5185842794      -20.7809428968  MEMB      136             0.0000000000
     15816       136  OSM       O14            21.2834166457       18.6872575871      -21.2691342279  MEMB      136             0.0000000000
     15817       136  OSM       O11            20.3642521498       18.1048593006      -18.9608943467  MEMB      136             0.0000000000
     15818       136  OSM       O12            18.7875297151       18.5405254798      -20.7793529543  MEMB      136             0.0000000000
     15819       136  OSM       C1S            19.3317507663       17.4410076700      -18.1970507956  MEMB      136             0.0000000000
     15820       136  OSM       H1S            19.1185352664       16.4116953878      -18.5648639614  MEMB      136             0.0000000000
     15821       136  OSM       H1T            18.4125919660       18.0401775493      -18.2171643551  MEMB      136             0.0000000000
     15822       136  OSM       NF             19.8686942291       18.5887538892      -16.0829902939  MEMB      136             0.0000000000
     15823       136  OSM       HNF            20.8100545714       18.9343874583      -16.0295874174  MEMB      136             0.0000000000
     15824       136  OSM       C2S            19.6637422196       17.2559651454      -16.7117018198  MEMB      136             0.0000000000
     15825       136  OSM       H2S            18.9081252768       16.6291214794      -16.1939903209  MEMB      136             0.0000000000
     15826       136  OSM       C3S            20.8595031221       16.3935798275      -16.6683351928  MEMB      136             0.0000000000
     15827       136  OSM       H3S            21.6448119674       16.7175680788      -17.1230637564  MEMB      136             0.0000000000
     15828       136  OSM       O3             20.9274685062       15.2072841711      -17.4302034419  MEMB      136             0.0000000000
     15829       136  OSM       HO3            20.6029214391       15.5534447211      -18.2733292027  MEMB      136             0.0000000000
     15830       136  OSM       C4S            21.0911356290       16.4373250283      -15.2370259795  MEMB      136             0.0000000000
     15831       136  OSM       H4S            21.4557109093       17.3496557615      -14.7636926864  MEMB      136             0.0000000000
     15832       136  OSM       C5S            21.3405464505       15.4109802489      -14.6106182082  MEMB      136             0.0000000000
     15833       136  OSM       H5S            21.2874241690       14.5715603636      -15.2830273999  MEMB      136             0.0000000000
     15834       136  OSM       C6S            21.6613111658       15.3559995349      -13.1651676702  MEMB      136             0.0000000000
     15835       136  OSM       H6S            22.6092089167       14.9387683502      -13.4340175154  MEMB      136             0.0000000000
     15836       136  OSM       H6T            21.0474416671       14.6592373470      -12.5519523850  MEMB      136             0.0000000000
     15837       136  OSM       C7S            22.7255267364       15.8397517626      -12.2266733871  MEMB      136             0.0000000000
     15838       136  OSM       H7S            23.1685681435       16.7125112173      -12.7333629527  MEMB      136             0.0000000000
     15839       136  OSM       H7T            23.5326473230       15.1504353788      -11.8290710016  MEMB      136             0.0000000000
     15840       136  OSM       C8S            21.8131944831       16.2760619698      -11.2080572871  MEMB      136             0.0000000000
     15841       136  OSM       H8S            20.9871522162       16.7964945461      -11.7540517677  MEMB      136             0.0000000000
     15842       136  OSM       H8T            22.4514203113       16.9544593756      -10.7494648733  MEMB      136             0.0000000000
     15843       136  OSM       C9S            21.5164060006       15.3738834314      -10.0360092096  MEMB      136             0.0000000000
     15844       136  OSM       H9S            22.4907107422       15.0298556487       -9.6067805484  MEMB      136             0.0000000000
     15845       136  OSM       H9T            20.8195313884       14.6296716949      -10.4142952079  MEMB      136             0.0000000000
     15846       136  OSM       C10S           20.8379501772       16.1211189825       -8.8986315129  MEMB      136             0.0000000000
     15847       136  OSM       H10S           19.8790486589       16.5793254139       -9.2265455543  MEMB      136             0.0000000000
     15848       136  OSM       H10T           21.8077968006       16.6864837441       -8.8113474799  MEMB      136             0.0000000000
     15849       136  OSM       C11S           20.8132503698       16.0182754530       -7.3439545176  MEMB      136             0.0000000000
     15850       136  OSM       H11S           21.8120876501       15.8081084807       -6.9255358314  MEMB      136             0.0000000000
     15851       136  OSM       H11T           20.0848371581       15.2495505809       -7.1312440058  MEMB      136             0.0000000000
     15852       136  OSM       C12S           19.7312182682       16.5697702746       -6.4228900910  MEMB      136             0.0000000000
     15853       136  OSM       H12S           18.7788015015       16.6840583837       -7.0021348615  MEMB      136             0.0000000000
     15854       136  OSM       H12T           20.1237654562       17.5347049827       -6.1214466961  MEMB      136             0.0000000000
     15855       136  OSM       C13S           19.4838926829       15.6345664105       -5.2019629469  MEMB      136             0.0000000000
     15856       136  OSM       H13S           20.4404069734       15.4736591687       -4.6571571726  MEMB      136             0.0000000000
     15857       136  OSM       H13T           19.0958898067       14.6269565250       -5.5126505997  MEMB      136             0.0000000000
     15858       136  OSM       C14S           18.4387617142       16.2063900241       -4.3207142144  MEMB      136             0.0000000000
     15859       136  OSM       H14S           17.9657452146       15.3899694994       -3.7291988738  MEMB      136             0.0000000000
     15860       136  OSM       H14T           17.6908486202       16.6465647455       -5.0125682300  MEMB      136             0.0000000000
     15861       136  OSM       C15S           19.0089879003       17.2633308622       -3.4038730869  MEMB      136             0.0000000000
     15862       136  OSM       H15S           18.2289368005       17.7856851499       -2.8458385755  MEMB      136             0.0000000000
     15863       136  OSM       H15T           19.4706541068       18.0682515489       -3.9890912092  MEMB      136             0.0000000000
     15864       136  OSM       C16S           19.8930218619       16.6278411050       -2.3473871747  MEMB      136             0.0000000000
     15865       136  OSM       H16S           20.8467651216       16.2636957406       -2.8013625120  MEMB      136             0.0000000000
     15866       136  OSM       H16T           19.3313982232       15.8556677637       -1.8029061855  MEMB      136             0.0000000000
     15867       136  OSM       C17S           20.2469563501       17.5667196623       -1.2804829023  MEMB      136             0.0000000000
     15868       136  OSM       H17S           20.7607306896       17.1924077693       -0.3780063030  MEMB      136             0.0000000000
     15869       136  OSM       H17T           19.4222543254       18.3032319513       -1.0475444984  MEMB      136             0.0000000000
     15870       136  OSM       C18S           21.2533510242       18.3202147547       -1.8935397805  MEMB      136             0.0000000000
     15871       136  OSM       H18S           21.4220831706       18.9886996236       -1.0949570912  MEMB      136             0.0000000000
     15872       136  OSM       H18T           20.7348443345       18.9350707339       -2.6128247492  MEMB      136             0.0000000000
     15873       136  OSM       H18U           22.2716010330       18.0649727644       -2.2640030046  MEMB      136             0.0000000000
     15874       136  OSM       C1F            18.9181461391       19.4653934210      -16.0378710073  MEMB      136             0.0000000000
     15875       136  OSM       OF             17.7717295735       19.0608876412      -16.1070985657  MEMB      136             0.0000000000
     15876       136  OSM       C2F            19.3358401285       20.9120378588      -15.9662933423  MEMB      136             0.0000000000
     15877       136  OSM       H2F            19.5354131829       21.2830566667      -16.9904296802  MEMB      136             0.0000000000
     15878       136  OSM       H2G            20.2767349499       20.9888592162      -15.3808568948  MEMB      136             0.0000000000
     15879       136  OSM       C3F            18.2605416001       21.8218497726      -15.3789936424  MEMB      136             0.0000000000
     15880       136  OSM       H3F            17.3326736050       21.7173636391      -15.9893052218  MEMB      136             0.0000000000
     15881       136  OSM       H3G            18.5473324917       22.8997432895      -15.3697584119  MEMB      136             0.0000000000
     15882       136  OSM       C4F            17.8684502034       21.4255073458      -13.9982852833  MEMB      136             0.0000000000
     15883       136  OSM       H4F            18.5918974250       21.7381716179      -13.2090825003  MEMB      136             0.0000000000
     15884       136  OSM       H4G            17.6840261411       20.3286187906      -13.9305602085  MEMB      136             0.0000000000
     15885       136  OSM       C5F            16.6097523517       22.1239842544      -13.6769079000  MEMB      136             0.0000000000
     15886       136  OSM       H5F            15.7291075017       21.7672869067      -14.2399120048  MEMB      136             0.0000000000
     15887       136  OSM       H5G            16.6515490097       23.1939988139      -13.7604591247  MEMB      136             0.0000000000
     15888       136  OSM       C6F            16.5526056556       21.9712317248      -12.2162194353  MEMB      136             0.0000000000
     15889       136  OSM       H6F            15.8546375706       22.6516964497      -11.9070940461  MEMB      136             0.0000000000
     15890       136  OSM       H6G            17.2061485916       22.5972282686      -11.6341515077  MEMB      136             0.0000000000
     15891       136  OSM       C7F            16.4784412530       20.5072477001      -11.8613017295  MEMB      136             0.0000000000
     15892       136  OSM       H7F            17.4516519984       20.1511765529      -11.6707203470  MEMB      136             0.0000000000
     15893       136  OSM       H7G            15.9982876743       20.0074732890      -12.7442612108  MEMB      136             0.0000000000
     15894       136  OSM       C8F            16.1810816759       20.0306360971      -10.3710112153  MEMB      136             0.0000000000
     15895       136  OSM       H8F            15.1352559005       20.3859747409      -11.0205659067  MEMB      136             0.0000000000
     15896       136  OSM       H8G            16.0356668152       21.0386542278       -9.9833531464  MEMB      136             0.0000000000
     15897       136  OSM       C9F            16.0897091781       18.3995006332       -9.3497810995  MEMB      136             0.0000000000
     15898       136  OSM       H9F            15.0798925833       17.6231276254       -9.4985050516  MEMB      136             0.0000000000
     15899       136  OSM       C10F           16.0803822216       17.9843138413       -8.1276781269  MEMB      136             0.0000000000
     15900       136  OSM       H10F           15.1796979769       17.2525658770       -7.9763176865  MEMB      136             0.0000000000
     15901       136  OSM       C11F           16.2319687374       19.2302370181       -7.2933794703  MEMB      136             0.0000000000
     15902       136  OSM       H11F           15.8311697861       19.0367911325       -6.3229824616  MEMB      136             0.0000000000
     15903       136  OSM       H11G           15.8694103999       20.2943891179       -7.5218739316  MEMB      136             0.0000000000
     15904       136  OSM       C12F           17.5831957155       19.6530007478       -7.3975756183  MEMB      136             0.0000000000
     15905       136  OSM       H12F           17.6313631213       19.9027884236       -8.5006345233  MEMB      136             0.0000000000
     15906       136  OSM       H12G           17.9011905605       18.6852085833       -6.9692944553  MEMB      136             0.0000000000
     15907       136  OSM       C13F           17.7333289190       20.7972181781       -6.4479544347  MEMB      136             0.0000000000
     15908       136  OSM       H13F           17.1271995309       21.6072349880       -6.6899252466  MEMB      136             0.0000000000
     15909       136  OSM       H13G           18.7082635881       21.2258352158       -6.6098448812  MEMB      136             0.0000000000
     15910       136  OSM       C14F           17.2342177054       20.5706325777       -5.0184285952  MEMB      136             0.0000000000
     15911       136  OSM       H14F           16.8689860452       19.5412027255       -4.8946054434  MEMB      136             0.0000000000
     15912       136  OSM       H14G           16.4312159946       21.2593887563       -4.6981504258  MEMB      136             0.0000000000
     15913       136  OSM       C15F           18.4164302604       20.4984005273       -4.1358400113  MEMB      136             0.0000000000
     15914       136  OSM       H15F           18.9917363508       19.9110216725       -4.8227409670  MEMB      136             0.0000000000
     15915       136  OSM       H15G           18.3137309736       19.9291235548       -3.2140379461  MEMB      136             0.0000000000
     15916       136  OSM       C16F           19.0360911928       21.7556782414       -3.7332055336  MEMB      136             0.0000000000
     15917       136  OSM       H16F           19.0067443815       22.3619230925       -4.5927518963  MEMB      136             0.0000000000
     15918       136  OSM       H16G           20.1050627525       21.8791349158       -3.4702142080  MEMB      136             0.0000000000
     15919       136  OSM       C17F           18.1266801934       22.0908885297       -2.6660584570  MEMB      136             0.0000000000
     15920       136  OSM       H17F           18.1983255499       21.6264635138       -1.7178301952  MEMB      136             0.0000000000
     15921       136  OSM       H17G           17.0428863475       22.0996465358       -2.8988555997  MEMB      136             0.0000000000
     15922       136  OSM       C18F           18.5697773101       23.3083187943       -2.2578181883  MEMB      136             0.0000000000
     15923       136  OSM       H18F           18.0511260873       23.7312146207       -1.3902729941  MEMB      136             0.0000000000
     15924       136  OSM       H18G           18.1079233997       23.6508690641       -2.9910458779  MEMB      136             0.0000000000
     15925       136  OSM       H18H           19.5432469733       23.7867548495       -2.5522889961  MEMB      136             0.0000000000
     15926       137  OSM       N             -24.8376369036       13.2011719002      -19.9004339133  MEMB      137             0.0000000000
     15927       137  OSM       C15           -25.3566489060       12.5089425944      -18.6828846163  MEMB      137             0.0000000000
     15928       137  OSM       H15A          -24.5762251060       12.3879689773      -17.9474416124  MEMB      137             0.0000000000
     15929       137  OSM       H15B          -25.7378690383       11.5288814185      -18.9356427381  MEMB      137             0.0000000000
     15930       137  OSM       H15C          -26.1838197408       13.0513631223      -18.2341118400  MEMB      137             0.0000000000
     15931       137  OSM       C14           -25.9650934892       13.4699586348      -20.8439602786  MEMB      137             0.0000000000
     15932       137  OSM       H14A          -26.4449835779       12.5533478509      -21.1503042183  MEMB      137             0.0000000000
     15933       137  OSM       H14B          -25.5224163002       13.9395640801      -21.7067384737  MEMB      137             0.0000000000
     15934       137  OSM       H14C          -26.7042975852       14.1667142963      -20.4272071402  MEMB      137             0.0000000000
     15935       137  OSM       C13           -24.2342302068       14.4943642982      -19.4712706431  MEMB      137             0.0000000000
     15936       137  OSM       H13A          -24.9999674129       15.1421844527      -19.0550977874  MEMB      137             0.0000000000
     15937       137  OSM       H13B          -23.7789188048       15.0097826537      -20.3115373918  MEMB      137             0.0000000000
     15938       137  OSM       H13C          -23.4485183850       14.3210041303      -18.7481769164  MEMB      137             0.0000000000
     15939       137  OSM       C12           -23.7808860837       12.3180015782      -20.5554810542  MEMB      137             0.0000000000
     15940       137  OSM       H12A          -24.1414998971       11.2997841969      -20.5335640663  MEMB      137             0.0000000000
     15941       137  OSM       H12B          -22.8696536994       12.3743818161      -19.9619823118  MEMB      137             0.0000000000
     15942       137  OSM       C11           -23.3688019193       12.5416666197      -22.0277775210  MEMB      137             0.0000000000
     15943       137  OSM       H11A          -24.2502020861       12.5458656061      -22.6722566738  MEMB      137             0.0000000000
     15944       137  OSM       H11B          -22.8048863187       11.6205596661      -22.3530933303  MEMB      137             0.0000000000
     15945       137  OSM       P             -21.1447090476       13.7765721143      -21.9012307694  MEMB      137             0.0000000000
     15946       137  OSM       O13           -20.7312322153       12.4683458915      -22.3905835632  MEMB      137             0.0000000000
     15947       137  OSM       O14           -20.4351007348       14.9765577421      -22.3936935798  MEMB      137             0.0000000000
     15948       137  OSM       O11           -21.1193212042       13.7173759006      -20.3460420836  MEMB      137             0.0000000000
     15949       137  OSM       O12           -22.6788183871       13.7827112738      -22.2187233536  MEMB      137             0.0000000000
     15950       137  OSM       C1S           -19.8713423939       13.3236957526      -19.7593872356  MEMB      137             0.0000000000
     15951       137  OSM       H1S           -19.0476281800       14.0292688518      -20.0237943770  MEMB      137             0.0000000000
     15952       137  OSM       H1T           -19.5596529527       12.2964614926      -20.0376339371  MEMB      137             0.0000000000
     15953       137  OSM       NF            -21.1310473049       12.3955807749      -17.8774094572  MEMB      137             0.0000000000
     15954       137  OSM       HNF           -21.9546553497       12.8468881120      -17.5777272808  MEMB      137             0.0000000000
     15955       137  OSM       C2S           -20.0513704083       13.2610191698      -18.2516341068  MEMB      137             0.0000000000
     15956       137  OSM       H2S           -19.1471311110       12.9003844421      -17.7731274596  MEMB      137             0.0000000000
     15957       137  OSM       C3S           -20.2489918241       14.6726250948      -17.7789263804  MEMB      137             0.0000000000
     15958       137  OSM       H3S           -21.1018687662       15.1470210828      -18.2799075223  MEMB      137             0.0000000000
     15959       137  OSM       O3            -19.1331641540       15.4717877876      -18.0899551710  MEMB      137             0.0000000000
     15960       137  OSM       HO3           -18.6197590722       15.0976925639      -18.8035841361  MEMB      137             0.0000000000
     15961       137  OSM       C4S           -20.5379059185       14.6451680299      -16.3255266003  MEMB      137             0.0000000000
     15962       137  OSM       H4S           -19.7898350565       14.1823005152      -15.7188534699  MEMB      137             0.0000000000
     15963       137  OSM       C5S           -21.5414546522       15.1978791276      -15.6838580605  MEMB      137             0.0000000000
     15964       137  OSM       H5S           -22.2020257499       15.8466989109      -16.2616969314  MEMB      137             0.0000000000
     15965       137  OSM       C6S           -21.7180856297       15.1020199053      -14.1979446705  MEMB      137             0.0000000000
     15966       137  OSM       H6S           -21.4023493728       16.0704868665      -13.7637964034  MEMB      137             0.0000000000
     15967       137  OSM       H6T           -21.1054139154       14.3119002015      -13.7018981336  MEMB      137             0.0000000000
     15968       137  OSM       C7S           -23.1614193069       14.8227336591      -13.8104257044  MEMB      137             0.0000000000
     15969       137  OSM       H7S           -23.2701263695       13.7191820147      -13.7211226770  MEMB      137             0.0000000000
     15970       137  OSM       H7T           -23.8783343555       15.1583380717      -14.5952498688  MEMB      137             0.0000000000
     15971       137  OSM       C8S           -23.5099299168       15.4361472570      -12.4467647038  MEMB      137             0.0000000000
     15972       137  OSM       H8S           -24.6053680372       15.2922872357      -12.3316784798  MEMB      137             0.0000000000
     15973       137  OSM       H8T           -23.3033631289       16.5313153764      -12.4169918377  MEMB      137             0.0000000000
     15974       137  OSM       C9S           -22.8060533174       14.7346941679      -11.2667069167  MEMB      137             0.0000000000
     15975       137  OSM       H9S           -21.7749399696       15.1439213315      -11.1477249300  MEMB      137             0.0000000000
     15976       137  OSM       H9T           -22.6979254938       13.6607982604      -11.5274477169  MEMB      137             0.0000000000
     15977       137  OSM       C10S          -23.5647879712       14.9035216313       -9.9303015017  MEMB      137             0.0000000000
     15978       137  OSM       H10S          -24.6321492352       14.5933833594       -9.9730770713  MEMB      137             0.0000000000
     15979       137  OSM       H10T          -23.5736758677       15.9993443017       -9.7486538123  MEMB      137             0.0000000000
     15980       137  OSM       C11S          -22.9352702311       14.1690742247       -8.7285558089  MEMB      137             0.0000000000
     15981       137  OSM       H11S          -21.9418369637       14.6297118186       -8.5431124947  MEMB      137             0.0000000000
     15982       137  OSM       H11T          -22.7400534228       13.1066488253       -9.0002507773  MEMB      137             0.0000000000
     15983       137  OSM       C12S          -23.8003592036       14.2594760072       -7.4457472901  MEMB      137             0.0000000000
     15984       137  OSM       H12S          -24.5147436883       13.4166375001       -7.3545186588  MEMB      137             0.0000000000
     15985       137  OSM       H12T          -24.4097073697       15.1926038978       -7.4571365254  MEMB      137             0.0000000000
     15986       137  OSM       C13S          -23.0079951035       14.3822262547       -6.1494747471  MEMB      137             0.0000000000
     15987       137  OSM       H13S          -22.1467477773       13.6776107826       -6.1622487097  MEMB      137             0.0000000000
     15988       137  OSM       H13T          -23.6696655395       14.0811820389       -5.3059017107  MEMB      137             0.0000000000
     15989       137  OSM       C14S          -22.6241242768       15.8574378245       -5.9943000568  MEMB      137             0.0000000000
     15990       137  OSM       H14S          -23.4378712108       16.5837214264       -6.0173349549  MEMB      137             0.0000000000
     15991       137  OSM       H14T          -21.9863937850       16.1798359840       -6.8504282206  MEMB      137             0.0000000000
     15992       137  OSM       C15S          -22.0610515714       16.2840324555       -4.6659437520  MEMB      137             0.0000000000
     15993       137  OSM       H15S          -21.6062125708       17.2644622360       -4.6952665533  MEMB      137             0.0000000000
     15994       137  OSM       H15T          -21.1003375154       16.0954144834       -4.8075073224  MEMB      137             0.0000000000
     15995       137  OSM       C16S          -22.3082656797       15.4842224599       -3.3839908884  MEMB      137             0.0000000000
     15996       137  OSM       H16S          -21.5440252697       15.5864149122       -2.5909486922  MEMB      137             0.0000000000
     15997       137  OSM       H16T          -22.2868000702       14.3787953124       -3.5343482015  MEMB      137             0.0000000000
     15998       137  OSM       C17S          -23.6649521993       15.9093477326       -2.9105885541  MEMB      137             0.0000000000
     15999       137  OSM       H17S          -23.8698564128       15.2831238612       -2.0252044282  MEMB      137             0.0000000000
     16000       137  OSM       H17T          -24.2700519848       15.7984722131       -3.8152337112  MEMB      137             0.0000000000
     16001       137  OSM       C18S          -24.0298811497       17.3199831385       -2.5746921639  MEMB      137             0.0000000000
     16002       137  OSM       H18S          -24.7508383445       17.7450049714       -1.8829388721  MEMB      137             0.0000000000
     16003       137  OSM       H18T          -23.5100712711       18.0898784115       -3.2134251284  MEMB      137             0.0000000000
     16004       137  OSM       H18U          -23.5794451602       17.1609854768       -1.5772175373  MEMB      137             0.0000000000
     16005       137  OSM       C1F           -21.0355712352       11.0757457316      -18.0532496109  MEMB      137             0.0000000000
     16006       137  OSM       OF            -20.1058862068       10.5834159283      -18.6594744085  MEMB      137             0.0000000000
     16007       137  OSM       C2F           -22.1670395064       10.2644533872      -17.5341844894  MEMB      137             0.0000000000
     16008       137  OSM       H2F           -22.6351457203        9.7050763116      -18.3762844603  MEMB      137             0.0000000000
     16009       137  OSM       H2G           -22.8789849031       10.9864353611      -17.0861192004  MEMB      137             0.0000000000
     16010       137  OSM       C3F           -21.7241272525        9.2688633294      -16.4455089028  MEMB      137             0.0000000000
     16011       137  OSM       H3F           -20.7305186857        9.5578126898      -16.0364626193  MEMB      137             0.0000000000
     16012       137  OSM       H3G           -21.5995690061        8.2638541102      -16.8848042842  MEMB      137             0.0000000000
     16013       137  OSM       C4F           -22.7851241176        8.9985217339      -15.3834717095  MEMB      137             0.0000000000
     16014       137  OSM       H4F           -22.8174371113        7.9105499430      -15.1203958998  MEMB      137             0.0000000000
     16015       137  OSM       H4G           -23.7764402255        9.2617778852      -15.7933734153  MEMB      137             0.0000000000
     16016       137  OSM       C5F           -22.5501463367        9.7894771244      -14.1242092785  MEMB      137             0.0000000000
     16017       137  OSM       H5F           -23.4911831143        9.8039369341      -13.5363237083  MEMB      137             0.0000000000
     16018       137  OSM       H5G           -22.2356151245       10.8287763153      -14.3656711126  MEMB      137             0.0000000000
     16019       137  OSM       C6F           -21.4635595275        9.1536936439      -13.3080165144  MEMB      137             0.0000000000
     16020       137  OSM       H6F           -20.4869792594        9.1871149315      -13.8618641743  MEMB      137             0.0000000000
     16021       137  OSM       H6G           -21.6475839462        8.0806708094      -13.0777311104  MEMB      137             0.0000000000
     16022       137  OSM       C7F           -21.2495468885        9.9477659797      -12.0587511889  MEMB      137             0.0000000000
     16023       137  OSM       H7F           -20.9294520384       10.9829186395      -12.1359678619  MEMB      137             0.0000000000
     16024       137  OSM       H7G           -20.2482210501        9.6104593592      -11.8663127123  MEMB      137             0.0000000000
     16025       137  OSM       C8F           -22.4138756323       10.2874629819      -11.1068989905  MEMB      137             0.0000000000
     16026       137  OSM       H8F           -22.8919037969       11.1424000332      -11.6254164524  MEMB      137             0.0000000000
     16027       137  OSM       H8G           -21.8856018862       10.8058971296      -10.2683632376  MEMB      137             0.0000000000
     16028       137  OSM       C9F           -23.4301187586        9.2465793001      -10.6151006094  MEMB      137             0.0000000000
     16029       137  OSM       H9F           -24.0307048470        8.7600488633      -11.4017666194  MEMB      137             0.0000000000
     16030       137  OSM       C10F          -23.5590515309        8.7223098269       -9.3634764373  MEMB      137             0.0000000000
     16031       137  OSM       H10F          -24.1128682491        7.7673124283       -9.3021364554  MEMB      137             0.0000000000
     16032       137  OSM       C11F          -22.6865457561        9.0506107818       -8.1228862858  MEMB      137             0.0000000000
     16033       137  OSM       H11F          -21.9442101964        9.8827455195       -8.2124394661  MEMB      137             0.0000000000
     16034       137  OSM       H11G          -21.9783947368        8.3046720611       -7.6865408442  MEMB      137             0.0000000000
     16035       137  OSM       C12F          -23.0945635896        9.0390935987       -6.8233107917  MEMB      137             0.0000000000
     16036       137  OSM       H12F          -22.1162199628        9.3375499556       -6.2606893063  MEMB      137             0.0000000000
     16037       137  OSM       H12G          -23.5075683258        7.9946949161       -6.6504098085  MEMB      137             0.0000000000
     16038       137  OSM       C13F          -23.9254325778       10.1718872277       -6.9221161031  MEMB      137             0.0000000000
     16039       137  OSM       H13F          -24.8707513499        9.7950812629       -7.3487959235  MEMB      137             0.0000000000
     16040       137  OSM       H13G          -23.4772694827       10.9215020137       -7.6447734421  MEMB      137             0.0000000000
     16041       137  OSM       C14F          -23.8978122173       10.6729378456       -5.5304252424  MEMB      137             0.0000000000
     16042       137  OSM       H14F          -24.7687740739       11.3299452788       -5.5628681547  MEMB      137             0.0000000000
     16043       137  OSM       H14G          -22.9401605880       11.2358024287       -5.4213415143  MEMB      137             0.0000000000
     16044       137  OSM       C15F          -23.9444348541        9.5807061713       -4.4361942758  MEMB      137             0.0000000000
     16045       137  OSM       H15F          -22.9527184072        9.0944837200       -4.3605984740  MEMB      137             0.0000000000
     16046       137  OSM       H15G          -24.6770308266        8.7906955026       -4.7225960522  MEMB      137             0.0000000000
     16047       137  OSM       C16F          -24.2191323036       10.0971530595       -3.0164764213  MEMB      137             0.0000000000
     16048       137  OSM       H16F          -24.0445715445        9.2961833273       -2.2634111147  MEMB      137             0.0000000000
     16049       137  OSM       H16G          -25.2919865349       10.3517131972       -2.9355998505  MEMB      137             0.0000000000
     16050       137  OSM       C17F          -23.4120464450       11.3299454531       -2.5944540272  MEMB      137             0.0000000000
     16051       137  OSM       H17F          -23.9153694487       11.7441174500       -1.6897808354  MEMB      137             0.0000000000
     16052       137  OSM       H17G          -23.4822193005       12.1403121117       -3.3542811292  MEMB      137             0.0000000000
     16053       137  OSM       C18F          -21.9567206301       11.0275949709       -2.2277720757  MEMB      137             0.0000000000
     16054       137  OSM       H18F          -21.4886541966       10.2298254840       -2.8366178565  MEMB      137             0.0000000000
     16055       137  OSM       H18G          -21.8865291112       10.6910278469       -1.1727028555  MEMB      137             0.0000000000
     16056       137  OSM       H18H          -21.3609211863       11.9459568792       -2.3619785245  MEMB      137             0.0000000000
     16057       138  SAPS      N             -15.6233528777       20.5147513137      -20.0612820085  MEMB      138             0.0000000000
     16058       138  SAPS      HN1           -14.9035704947       21.1922494570      -20.3986209316  MEMB      138             0.0000000000
     16059       138  SAPS      HN2           -15.8013073461       20.5196250957      -19.0365966237  MEMB      138             0.0000000000
     16060       138  SAPS      HN3           -15.4121334108       19.5596093780      -20.4085040692  MEMB      138             0.0000000000
     16061       138  SAPS      C12           -16.8769170796       20.9359597040      -20.7332614594  MEMB      138             0.0000000000
     16062       138  SAPS      H12A          -17.0800284133       21.9483071248      -20.4265087006  MEMB      138             0.0000000000
     16063       138  SAPS      C13           -16.7444279945       20.8703581646      -22.2787998539  MEMB      138             0.0000000000
     16064       138  SAPS      O13A          -15.7520149216       20.2597287841      -22.7764116469  MEMB      138             0.0000000000
     16065       138  SAPS      O13B          -17.6533093585       21.3931199576      -22.9654581098  MEMB      138             0.0000000000
     16066       138  SAPS      C11           -18.0649794216       20.0604661159      -20.2384704816  MEMB      138             0.0000000000
     16067       138  SAPS      H11A          -18.0030254059       19.0597056330      -20.7246992422  MEMB      138             0.0000000000
     16068       138  SAPS      H11B          -18.9714919720       20.5925844658      -20.6212990458  MEMB      138             0.0000000000
     16069       138  SAPS      P             -19.1215477531       18.8002079014      -18.2203255737  MEMB      138             0.0000000000
     16070       138  SAPS      O13           -19.8368142990       19.3846629229      -17.0703420741  MEMB      138             0.0000000000
     16071       138  SAPS      O14           -19.9235468395       18.2240642930      -19.3223845410  MEMB      138             0.0000000000
     16072       138  SAPS      O12           -18.1104042805       19.9246263538      -18.8047753940  MEMB      138             0.0000000000
     16073       138  SAPS      O11           -18.1327969377       17.7357178518      -17.6542862474  MEMB      138             0.0000000000
     16074       138  SAPS      C1            -16.7607557505       17.8399550146      -17.6327666680  MEMB      138             0.0000000000
     16075       138  SAPS      HA            -16.3163504175       17.7072916724      -18.6410448994  MEMB      138             0.0000000000
     16076       138  SAPS      HB            -16.5186505031       18.8478611631      -17.2502143004  MEMB      138             0.0000000000
     16077       138  SAPS      C2            -16.1086895356       16.8391259257      -16.6803577701  MEMB      138             0.0000000000
     16078       138  SAPS      HS            -16.0350704131       15.8069068332      -17.1018271729  MEMB      138             0.0000000000
     16079       138  SAPS      O21           -16.6459632339       16.8568545957      -15.3403564475  MEMB      138             0.0000000000
     16080       138  SAPS      C21           -17.6721614561       16.0996010850      -15.1544971506  MEMB      138             0.0000000000
     16081       138  SAPS      O22           -17.9198694403       15.1144287849      -15.7951189344  MEMB      138             0.0000000000
     16082       138  SAPS      C22           -18.5007202133       16.4841347524      -13.9384043221  MEMB      138             0.0000000000
     16083       138  SAPS      H2R           -19.5300788011       16.6568727693      -14.2953323775  MEMB      138             0.0000000000
     16084       138  SAPS      H2S           -18.5513933673       15.6170494450      -13.2476062168  MEMB      138             0.0000000000
     16085       138  SAPS      C3            -14.7553846020       17.3721061124      -16.6422537248  MEMB      138             0.0000000000
     16086       138  SAPS      HX            -14.2197400246       17.5913227807      -17.5778974497  MEMB      138             0.0000000000
     16087       138  SAPS      HY            -14.1779614947       16.5054645800      -16.2541509742  MEMB      138             0.0000000000
     16088       138  SAPS      O31           -14.8787175234       18.5015903510      -15.7068539796  MEMB      138             0.0000000000
     16089       138  SAPS      C31           -14.3832573119       19.6257252431      -16.0378469576  MEMB      138             0.0000000000
     16090       138  SAPS      O32           -13.8301223051       19.8521573717      -17.1082787113  MEMB      138             0.0000000000
     16091       138  SAPS      C32           -14.9452542868       20.6836313389      -15.0897477076  MEMB      138             0.0000000000
     16092       138  SAPS      H2X           -14.4004069383       21.6309504454      -15.0846621847  MEMB      138             0.0000000000
     16093       138  SAPS      H2Y           -14.9361558561       20.3455507321      -14.0367279325  MEMB      138             0.0000000000
     16094       138  SAPS      C23           -17.8944398467       17.6928637822      -13.2165534288  MEMB      138             0.0000000000
     16095       138  SAPS      H3R           -17.5034386749       18.4373040825      -13.9497158228  MEMB      138             0.0000000000
     16096       138  SAPS      H3S           -17.0525174901       17.2585126183      -12.6272157967  MEMB      138             0.0000000000
     16097       138  SAPS      C24           -18.8749327780       18.4368797010      -12.3145288170  MEMB      138             0.0000000000
     16098       138  SAPS      H4R           -19.6366668732       17.7002315939      -11.9799043669  MEMB      138             0.0000000000
     16099       138  SAPS      H4S           -19.4152413576       19.2017216709      -12.9154724749  MEMB      138             0.0000000000
     16100       138  SAPS      C25           -18.1441407152       19.1109537841      -11.1788597176  MEMB      138             0.0000000000
     16101       138  SAPS      H5R           -17.4228877280       19.8937801049      -11.4529701957  MEMB      138             0.0000000000
     16102       138  SAPS      C26           -18.2592502064       18.8283916288       -9.8777022579  MEMB      138             0.0000000000
     16103       138  SAPS      H6R           -17.6462385845       19.4210809081       -9.1807586401  MEMB      138             0.0000000000
     16104       138  SAPS      C27           -19.1494439680       17.7684486608       -9.2776040946  MEMB      138             0.0000000000
     16105       138  SAPS      H7R           -19.8863909744       17.4074445827      -10.0245276149  MEMB      138             0.0000000000
     16106       138  SAPS      H7S           -19.7942833998       18.1691252202       -8.4686104181  MEMB      138             0.0000000000
     16107       138  SAPS      C28           -18.2169505210       16.6719440001       -8.8172308945  MEMB      138             0.0000000000
     16108       138  SAPS      H8R           -17.5556729347       16.2887973894       -9.6052057384  MEMB      138             0.0000000000
     16109       138  SAPS      C29           -18.0832371246       16.1429322306       -7.5860280164  MEMB      138             0.0000000000
     16110       138  SAPS      H9R           -17.3697366156       15.3254804164       -7.4013597277  MEMB      138             0.0000000000
     16111       138  SAPS      C210          -18.8337399520       16.5022676961       -6.3582729061  MEMB      138             0.0000000000
     16112       138  SAPS      H10R          -19.4763408356       17.3950754537       -6.5384150379  MEMB      138             0.0000000000
     16113       138  SAPS      H10S          -18.1802238103       16.7059749257       -5.4807959508  MEMB      138             0.0000000000
     16114       138  SAPS      C211          -19.5887774952       15.2140733129       -6.2416494705  MEMB      138             0.0000000000
     16115       138  SAPS      H11R          -20.4399700013       15.1177394276       -6.8864931385  MEMB      138             0.0000000000
     16116       138  SAPS      C212          -19.7716001674       14.4955576387       -5.1209645331  MEMB      138             0.0000000000
     16117       138  SAPS      H12R          -20.7513370441       13.9873528738       -4.9634258460  MEMB      138             0.0000000000
     16118       138  SAPS      C213          -19.2892377709       14.7728352346       -3.7062662068  MEMB      138             0.0000000000
     16119       138  SAPS      H13R          -19.9349815064       14.6287997056       -2.8024548286  MEMB      138             0.0000000000
     16120       138  SAPS      H13S          -18.5355417224       15.5460773017       -3.5284897121  MEMB      138             0.0000000000
     16121       138  SAPS      C214          -18.5285069605       13.7182115212       -4.2052522109  MEMB      138             0.0000000000
     16122       138  SAPS      H14R          -19.3155997244       12.9231656125       -3.8265100196  MEMB      138             0.0000000000
     16123       138  SAPS      C215          -17.4271512191       13.3988106661       -3.6097011442  MEMB      138             0.0000000000
     16124       138  SAPS      H15R          -16.8921857028       12.4735046200       -3.9611680814  MEMB      138             0.0000000000
     16125       138  SAPS      C216          -16.7317451370       13.8210499863       -2.3382461371  MEMB      138             0.0000000000
     16126       138  SAPS      H16R          -16.8860539576       14.7451587919       -2.7891952164  MEMB      138             0.0000000000
     16127       138  SAPS      H16S          -16.1460654123       12.8738563718       -2.4820142617  MEMB      138             0.0000000000
     16128       138  SAPS      C217          -16.4484554045       13.9319175659       -0.7959020177  MEMB      138             0.0000000000
     16129       138  SAPS      H17R          -17.2598277322       14.5032363487       -0.3670706290  MEMB      138             0.0000000000
     16130       138  SAPS      H17S          -15.6173711025       14.6808243655       -0.7266060213  MEMB      138             0.0000000000
     16131       138  SAPS      C218          -15.9574830006       12.6122728998       -0.0773717244  MEMB      138             0.0000000000
     16132       138  SAPS      H18R          -15.2452939051       11.9310193070       -0.6010121703  MEMB      138             0.0000000000
     16133       138  SAPS      H18S          -16.7650005613       11.8991471439        0.0857874218  MEMB      138             0.0000000000
     16134       138  SAPS      C219          -15.1748396471       12.9854652533        1.1683759926  MEMB      138             0.0000000000
     16135       138  SAPS      H19R          -15.9038517393       13.3724302698        1.9039910227  MEMB      138             0.0000000000
     16136       138  SAPS      H19S          -14.5403450133       13.8543068460        0.8818401781  MEMB      138             0.0000000000
     16137       138  SAPS      C220          -14.3429722691       11.8381464437        1.7571362512  MEMB      138             0.0000000000
     16138       138  SAPS      H20R          -13.5678539154       11.4592076785        1.0517284968  MEMB      138             0.0000000000
     16139       138  SAPS      H20S          -15.0201759374       10.9926570004        2.0043696416  MEMB      138             0.0000000000
     16140       138  SAPS      H20T          -13.8335454681       12.1597473379        2.6910962375  MEMB      138             0.0000000000
     16141       138  SAPS      C33           -16.3457795225       20.9230135336      -15.6661498021  MEMB      138             0.0000000000
     16142       138  SAPS      H3X           -16.9502265950       20.0025245965      -15.4935987668  MEMB      138             0.0000000000
     16143       138  SAPS      H3Y           -16.3055688925       21.0714676919      -16.7717417030  MEMB      138             0.0000000000
     16144       138  SAPS      C34           -17.0665121081       22.1112607548      -15.0652857170  MEMB      138             0.0000000000
     16145       138  SAPS      H4X           -18.0270752870       22.2726149904      -15.6176620285  MEMB      138             0.0000000000
     16146       138  SAPS      H4Y           -16.4690466501       23.0279290425      -15.2130137475  MEMB      138             0.0000000000
     16147       138  SAPS      C35           -17.3643965444       21.9088855362      -13.5743910026  MEMB      138             0.0000000000
     16148       138  SAPS      H5X           -16.4750976036       21.5878745812      -12.9922483236  MEMB      138             0.0000000000
     16149       138  SAPS      H5Y           -18.0801520064       21.0555447227      -13.5325240756  MEMB      138             0.0000000000
     16150       138  SAPS      C36           -17.9836589939       23.2014142337      -13.0275434385  MEMB      138             0.0000000000
     16151       138  SAPS      H6X           -18.7049394964       23.5007111669      -13.8221755266  MEMB      138             0.0000000000
     16152       138  SAPS      H6Y           -17.2567522743       24.0307921360      -12.9554615360  MEMB      138             0.0000000000
     16153       138  SAPS      C37           -18.8538384959       23.0820695910      -11.7716903535  MEMB      138             0.0000000000
     16154       138  SAPS      H7X           -19.5460390749       22.2325890061      -11.9389162447  MEMB      138             0.0000000000
     16155       138  SAPS      H7Y           -19.4683016986       24.0087754162      -11.6695485553  MEMB      138             0.0000000000
     16156       138  SAPS      C38           -18.1349186812       22.8674299042      -10.4444283835  MEMB      138             0.0000000000
     16157       138  SAPS      H8X           -17.6598855266       23.8040243472      -10.1510951855  MEMB      138             0.0000000000
     16158       138  SAPS      H8Y           -17.3300091466       22.1114106571      -10.5358815180  MEMB      138             0.0000000000
     16159       138  SAPS      C39           -19.1254702987       22.5355498616       -9.3296151126  MEMB      138             0.0000000000
     16160       138  SAPS      H9X           -19.7403556521       21.6725367643       -9.6586294328  MEMB      138             0.0000000000
     16161       138  SAPS      H9Y           -19.8134516029       23.3947320343       -9.1574558432  MEMB      138             0.0000000000
     16162       138  SAPS      C310          -18.4529934488       22.2673559356       -7.9888841778  MEMB      138             0.0000000000
     16163       138  SAPS      H10X          -17.7665137592       23.1115827782       -7.7651549687  MEMB      138             0.0000000000
     16164       138  SAPS      H10Y          -17.8766759456       21.3160975317       -8.0256131662  MEMB      138             0.0000000000
     16165       138  SAPS      C311          -19.4705208515       22.0465312513       -6.8825364958  MEMB      138             0.0000000000
     16166       138  SAPS      H11X          -20.3408011661       22.7339352038       -6.9682814943  MEMB      138             0.0000000000
     16167       138  SAPS      H11Y          -18.9559191053       22.2351022752       -5.9095714556  MEMB      138             0.0000000000
     16168       138  SAPS      C312          -19.9253331809       20.5860524156       -6.9926662582  MEMB      138             0.0000000000
     16169       138  SAPS      H12X          -19.0085470242       19.9838927080       -6.8044391388  MEMB      138             0.0000000000
     16170       138  SAPS      H12Y          -20.2112291266       20.3393625049       -8.0259766846  MEMB      138             0.0000000000
     16171       138  SAPS      C313          -21.0995011908       20.2707414881       -6.0884333021  MEMB      138             0.0000000000
     16172       138  SAPS      H13X          -21.5257180179       19.2370949786       -6.1790309885  MEMB      138             0.0000000000
     16173       138  SAPS      H13Y          -21.9284027701       20.9929616214       -6.2127279277  MEMB      138             0.0000000000
     16174       138  SAPS      C314          -20.6339761279       20.4651606541       -4.7014681951  MEMB      138             0.0000000000
     16175       138  SAPS      H14X          -21.5202017213       20.2908228599       -4.0427749264  MEMB      138             0.0000000000
     16176       138  SAPS      H14Y          -20.1970802010       21.4212620966       -4.3723073542  MEMB      138             0.0000000000
     16177       138  SAPS      C315          -19.4383229748       19.6673447760       -4.4127955991  MEMB      138             0.0000000000
     16178       138  SAPS      H15X          -18.4913832500       19.5234868686       -4.9848864419  MEMB      138             0.0000000000
     16179       138  SAPS      H15Y          -19.7500847746       18.6526195584       -4.8622297047  MEMB      138             0.0000000000
     16180       138  SAPS      C316          -19.3720440928       20.0936837390       -2.7978108899  MEMB      138             0.0000000000
     16181       138  SAPS      H16X          -18.7086963809       20.8913573276       -2.5162332363  MEMB      138             0.0000000000
     16182       138  SAPS      H16Y          -18.4519201723       19.4295423981       -2.8810332593  MEMB      138             0.0000000000
     16183       138  SAPS      C317          -20.6726665941       19.8143649632       -1.4631524435  MEMB      138             0.0000000000
     16184       138  SAPS      H17X          -21.3054508946       20.6588874346       -1.6111464486  MEMB      138             0.0000000000
     16185       138  SAPS      H17Y          -20.2583806901       19.8213572724       -0.4327957080  MEMB      138             0.0000000000
     16186       138  SAPS      C318          -21.7724064988       18.4944657341       -1.0977337595  MEMB      138             0.0000000000
     16187       138  SAPS      H18X          -22.2100863420       18.3392942968       -2.0088222964  MEMB      138             0.0000000000
     16188       138  SAPS      H18Y          -22.3856238666       18.2203672204       -0.2288357923  MEMB      138             0.0000000000
     16189       138  SAPS      H18Z          -21.5002548521       17.3690677433       -1.2308776264  MEMB      138             0.0000000000
     16190       139  CHL1      C3             22.9052900179      -15.2235326832      -17.3406638400  MEMB      139             0.0000000000
     16191       139  CHL1      H3             23.5871613878      -16.0843148122      -17.2513220771  MEMB      139             0.0000000000
     16192       139  CHL1      O3             22.2764243976      -15.1886000107      -18.6020521627  MEMB      139             0.0000000000
     16193       139  CHL1      H3'            21.9718152396      -16.1136051722      -18.7432232066  MEMB      139             0.0000000000
     16194       139  CHL1      C4             21.8115988545      -15.3042740692      -16.3106261728  MEMB      139             0.0000000000
     16195       139  CHL1      H4A            21.1073997408      -14.4524553367      -16.3823038628  MEMB      139             0.0000000000
     16196       139  CHL1      H4B            21.2225182937      -16.2290713347      -16.5116187876  MEMB      139             0.0000000000
     16197       139  CHL1      C5             22.3660288638      -15.2591670712      -14.9308800748  MEMB      139             0.0000000000
     16198       139  CHL1      C6             21.9712455254      -16.1626551867      -14.0691338487  MEMB      139             0.0000000000
     16199       139  CHL1      H6             21.3922431974      -17.0431956125      -14.3986931386  MEMB      139             0.0000000000
     16200       139  CHL1      C7             22.3832184841      -15.9881366911      -12.6578357396  MEMB      139             0.0000000000
     16201       139  CHL1      H7A            21.6222784356      -16.2751333825      -11.9238242994  MEMB      139             0.0000000000
     16202       139  CHL1      H7B            23.2620469026      -16.5702507906      -12.5574697790  MEMB      139             0.0000000000
     16203       139  CHL1      C8             23.1734992268      -14.8671744033      -12.1275689217  MEMB      139             0.0000000000
     16204       139  CHL1      H8             22.4154978595      -14.0979526832      -11.9566612939  MEMB      139             0.0000000000
     16205       139  CHL1      C14            23.8795633939      -15.2317220797      -10.8043897073  MEMB      139             0.0000000000
     16206       139  CHL1      H14            24.7290720817      -15.9544603698      -10.9943182963  MEMB      139             0.0000000000
     16207       139  CHL1      C15            23.0561443862      -15.6913180766       -9.5860578513  MEMB      139             0.0000000000
     16208       139  CHL1      H15A           22.0415644003      -15.3188262923       -9.4930018034  MEMB      139             0.0000000000
     16209       139  CHL1      H15B           22.8391732289      -16.6760592387       -9.3323981086  MEMB      139             0.0000000000
     16210       139  CHL1      C16            23.9153747007      -15.4737207097       -8.3903800373  MEMB      139             0.0000000000
     16211       139  CHL1      H16A           23.3044507967      -14.8590902324       -7.6903506228  MEMB      139             0.0000000000
     16212       139  CHL1      H16B           24.2647276977      -16.3974172078       -7.8721437419  MEMB      139             0.0000000000
     16213       139  CHL1      C17            25.0466996701      -14.6473095673       -8.9334346066  MEMB      139             0.0000000000
     16214       139  CHL1      H17            25.9017726658      -15.3067504626       -9.2257634346  MEMB      139             0.0000000000
     16215       139  CHL1      C13            24.5488187103      -14.0416285308      -10.2346057219  MEMB      139             0.0000000000
     16216       139  CHL1      C18            23.5591280468      -12.9092973810       -9.8859760961  MEMB      139             0.0000000000
     16217       139  CHL1      H18A           23.0218980730      -12.5724158481      -10.7818726462  MEMB      139             0.0000000000
     16218       139  CHL1      H18B           22.8268899131      -13.2260586627       -9.1225822877  MEMB      139             0.0000000000
     16219       139  CHL1      H18C           24.0929356248      -12.0265562589       -9.4876458261  MEMB      139             0.0000000000
     16220       139  CHL1      C12            25.5393532052      -13.6132965250      -11.2863422228  MEMB      139             0.0000000000
     16221       139  CHL1      H12A           25.7871513557      -12.5801237115      -10.9699060615  MEMB      139             0.0000000000
     16222       139  CHL1      H12B           26.4101420523      -14.2926171774      -11.3366435790  MEMB      139             0.0000000000
     16223       139  CHL1      C11            24.9555484126      -13.4068171272      -12.6898149331  MEMB      139             0.0000000000
     16224       139  CHL1      H11A           24.3740138856      -12.4757814665      -12.5874311328  MEMB      139             0.0000000000
     16225       139  CHL1      H11B           25.7201221471      -13.2984837885      -13.4681457377  MEMB      139             0.0000000000
     16226       139  CHL1      C9             24.1262318374      -14.5179050540      -13.2355249916  MEMB      139             0.0000000000
     16227       139  CHL1      H9             24.8307016881      -15.3690106276      -13.4497486282  MEMB      139             0.0000000000
     16228       139  CHL1      C10            23.4049562202      -14.1881412189      -14.5739552472  MEMB      139             0.0000000000
     16229       139  CHL1      C19            22.6521769939      -12.8598649459      -14.4131069440  MEMB      139             0.0000000000
     16230       139  CHL1      H19A           22.2445436698      -12.5698029863      -15.3808148421  MEMB      139             0.0000000000
     16231       139  CHL1      H19B           21.8395204714      -12.8965705382      -13.6642382843  MEMB      139             0.0000000000
     16232       139  CHL1      H19C           23.3326467451      -12.0400843258      -14.1446619238  MEMB      139             0.0000000000
     16233       139  CHL1      C1             24.4175831656      -14.0414906323      -15.7461811678  MEMB      139             0.0000000000
     16234       139  CHL1      H1A            25.0329093946      -13.1249060437      -15.6118206398  MEMB      139             0.0000000000
     16235       139  CHL1      H1B            25.0917111212      -14.9203948974      -15.7777308026  MEMB      139             0.0000000000
     16236       139  CHL1      C2             23.7630710154      -14.0001993697      -17.1326886639  MEMB      139             0.0000000000
     16237       139  CHL1      H2A            24.5583795382      -13.9205971868      -17.9033384042  MEMB      139             0.0000000000
     16238       139  CHL1      H2B            23.0569928945      -13.1618429720      -17.1999361170  MEMB      139             0.0000000000
     16239       139  CHL1      C20            25.3054262752      -13.7947676486       -7.7555789073  MEMB      139             0.0000000000
     16240       139  CHL1      H20            24.5157959136      -13.2110856618       -7.2840964222  MEMB      139             0.0000000000
     16241       139  CHL1      C21            26.0797712425      -12.5786078712       -8.1827858991  MEMB      139             0.0000000000
     16242       139  CHL1      H21A           26.5325028525      -13.1288846094       -9.0043370597  MEMB      139             0.0000000000
     16243       139  CHL1      H21B           26.5450187397      -12.2754960468       -7.2492194631  MEMB      139             0.0000000000
     16244       139  CHL1      H21C           26.0100161255      -11.6706449868       -8.7567939267  MEMB      139             0.0000000000
     16245       139  CHL1      C22            25.7963447932      -14.8125296821       -6.6349350165  MEMB      139             0.0000000000
     16246       139  CHL1      H22A           25.9484708921      -14.1750978439       -5.7613841175  MEMB      139             0.0000000000
     16247       139  CHL1      H22B           24.9595620327      -15.3157511505       -6.1675138258  MEMB      139             0.0000000000
     16248       139  CHL1      C23            26.7257420595      -16.0912171780       -7.0439203600  MEMB      139             0.0000000000
     16249       139  CHL1      H23A           26.7807209203      -16.4996281881       -8.0306694827  MEMB      139             0.0000000000
     16250       139  CHL1      H23B           27.7652518600      -15.8694272685       -7.1439274429  MEMB      139             0.0000000000
     16251       139  CHL1      C24            27.1148089843      -17.0572624225       -5.9927931104  MEMB      139             0.0000000000
     16252       139  CHL1      H24A           27.1256317683      -16.0569498684       -5.4687827877  MEMB      139             0.0000000000
     16253       139  CHL1      H24B           26.3269374906      -17.5627564755       -5.4787228634  MEMB      139             0.0000000000
     16254       139  CHL1      C25            28.4486246163      -17.9763479492       -6.2086158742  MEMB      139             0.0000000000
     16255       139  CHL1      H25            29.2640575422      -17.3026428865       -6.5934366575  MEMB      139             0.0000000000
     16256       139  CHL1      C26            29.1486131390      -18.9112083352       -5.1417912954  MEMB      139             0.0000000000
     16257       139  CHL1      H26A           29.7899592495      -18.1008314890       -4.8034319670  MEMB      139             0.0000000000
     16258       139  CHL1      H26B           28.5589077571      -19.4364495881       -4.3838671309  MEMB      139             0.0000000000
     16259       139  CHL1      H26C           30.1443172516      -19.1114409366       -4.7755724916  MEMB      139             0.0000000000
     16260       139  CHL1      C27            28.2282719874      -19.0711092827       -7.1047284555  MEMB      139             0.0000000000
     16261       139  CHL1      H27A           27.9952147707      -18.5937975336       -8.0643663708  MEMB      139             0.0000000000
     16262       139  CHL1      H27B           29.1884430740      -19.6511730428       -7.1184261252  MEMB      139             0.0000000000
     16263       139  CHL1      H27C           27.4214924789      -19.6524256846       -6.6089446720  MEMB      139             0.0000000000
     16264       140  OSM       N              -4.7446165306      -28.4672418431      -19.7710433613  MEMB      140             0.0000000000
     16265       140  OSM       C15            -5.6884436368      -29.5104440453      -19.2422022124  MEMB      140             0.0000000000
     16266       140  OSM       H15A           -6.1463321589      -30.1381117627      -20.0145128659  MEMB      140             0.0000000000
     16267       140  OSM       H15B           -6.5060897305      -29.0960918098      -18.6630185392  MEMB      140             0.0000000000
     16268       140  OSM       H15C           -5.1545121240      -30.2109840949      -18.6116724264  MEMB      140             0.0000000000
     16269       140  OSM       C14            -5.4762197258      -27.2031389587      -20.0923257239  MEMB      140             0.0000000000
     16270       140  OSM       H14A           -6.1785901771      -26.9620133490      -19.3153154197  MEMB      140             0.0000000000
     16271       140  OSM       H14B           -6.0176686476      -27.2650284286      -21.0350050279  MEMB      140             0.0000000000
     16272       140  OSM       H14C           -4.7613795397      -26.3801623986      -20.2300159442  MEMB      140             0.0000000000
     16273       140  OSM       C13            -3.7175237769      -28.1363045051      -18.7297658501  MEMB      140             0.0000000000
     16274       140  OSM       H13A           -4.1536249662      -27.6451549122      -17.8750729597  MEMB      140             0.0000000000
     16275       140  OSM       H13B           -3.0098831811      -27.4096952288      -19.1423664513  MEMB      140             0.0000000000
     16276       140  OSM       H13C           -3.1480947083      -29.0048693005      -18.4286160190  MEMB      140             0.0000000000
     16277       140  OSM       C12            -4.0282472858      -29.0242532767      -20.9921665772  MEMB      140             0.0000000000
     16278       140  OSM       H12A           -4.7516973683      -29.3010454746      -21.7483530138  MEMB      140             0.0000000000
     16279       140  OSM       H12B           -3.5368531659      -29.9458407634      -20.6873607390  MEMB      140             0.0000000000
     16280       140  OSM       C11            -2.9088950850      -28.1882848358      -21.6676736017  MEMB      140             0.0000000000
     16281       140  OSM       H11A           -2.6227506103      -28.6434696866      -22.6411135063  MEMB      140             0.0000000000
     16282       140  OSM       H11B           -2.0369700446      -28.2941117759      -20.9855238122  MEMB      140             0.0000000000
     16283       140  OSM       P              -1.9878739443      -25.8517247404      -22.1828612907  MEMB      140             0.0000000000
     16284       140  OSM       O13            -0.7063864002      -26.5914245016      -22.3315216409  MEMB      140             0.0000000000
     16285       140  OSM       O14            -2.3388476080      -24.8682698687      -23.2256772526  MEMB      140             0.0000000000
     16286       140  OSM       O11            -1.9338790741      -25.0936572962      -20.7821140868  MEMB      140             0.0000000000
     16287       140  OSM       O12            -3.2314665740      -26.8227965546      -21.8894034757  MEMB      140             0.0000000000
     16288       140  OSM       C1S            -1.1431358992      -25.6209488113      -19.7088304574  MEMB      140             0.0000000000
     16289       140  OSM       H1S            -0.0590277953      -25.4419381185      -19.8611438057  MEMB      140             0.0000000000
     16290       140  OSM       H1T            -1.2903987288      -26.7149646209      -19.6214578483  MEMB      140             0.0000000000
     16291       140  OSM       NF             -1.0470676574      -25.8043041146      -17.2644659615  MEMB      140             0.0000000000
     16292       140  OSM       HNF            -1.8083737693      -26.2946473384      -16.8637519793  MEMB      140             0.0000000000
     16293       140  OSM       C2S            -1.4541536916      -24.9693018615      -18.3411105571  MEMB      140             0.0000000000
     16294       140  OSM       H2S            -0.9955520668      -23.9472545582      -18.2813912547  MEMB      140             0.0000000000
     16295       140  OSM       C3S            -2.8921000395      -24.7722421654      -18.1533502225  MEMB      140             0.0000000000
     16296       140  OSM       H3S            -3.5684454794      -25.5833597026      -18.5146943222  MEMB      140             0.0000000000
     16297       140  OSM       O3             -3.2978489492      -23.6428282814      -18.8668754507  MEMB      140             0.0000000000
     16298       140  OSM       HO3            -2.5755117995      -23.2924479316      -19.3910868277  MEMB      140             0.0000000000
     16299       140  OSM       C4S            -3.1923362118      -24.5483827105      -16.6631779877  MEMB      140             0.0000000000
     16300       140  OSM       H4S            -2.9971423060      -23.5075248602      -16.4026223219  MEMB      140             0.0000000000
     16301       140  OSM       C5S            -3.8724551698      -25.3810172929      -15.8192839733  MEMB      140             0.0000000000
     16302       140  OSM       H5S            -4.1847233912      -26.3426211088      -16.2196929823  MEMB      140             0.0000000000
     16303       140  OSM       C6S            -4.2768074683      -25.2468361032      -14.3730054285  MEMB      140             0.0000000000
     16304       140  OSM       H6S            -4.6211240760      -26.2233416201      -13.9915997845  MEMB      140             0.0000000000
     16305       140  OSM       H6T            -5.2358091460      -24.7034314070      -14.1736702680  MEMB      140             0.0000000000
     16306       140  OSM       C7S            -3.2202155441      -24.6738934422      -13.4705529969  MEMB      140             0.0000000000
     16307       140  OSM       H7S            -2.8388534503      -23.6898878681      -13.8240600486  MEMB      140             0.0000000000
     16308       140  OSM       H7T            -2.3705190900      -25.3846959328      -13.3769725691  MEMB      140             0.0000000000
     16309       140  OSM       C8S            -3.8586546266      -24.5188231036      -12.1196558782  MEMB      140             0.0000000000
     16310       140  OSM       H8S            -4.2070461937      -25.5077407695      -11.7378569926  MEMB      140             0.0000000000
     16311       140  OSM       H8T            -4.7171876076      -23.8067700094      -12.1377891144  MEMB      140             0.0000000000
     16312       140  OSM       C9S            -2.8752632990      -24.0703118559      -11.1189926157  MEMB      140             0.0000000000
     16313       140  OSM       H9S            -2.4854229024      -23.0589489261      -11.4223875381  MEMB      140             0.0000000000
     16314       140  OSM       H9T            -1.9649070365      -24.7127161788      -11.1092820722  MEMB      140             0.0000000000
     16315       140  OSM       C10S           -3.6574058714      -24.1694996772       -9.7715287670  MEMB      140             0.0000000000
     16316       140  OSM       H10S           -4.1359356010      -23.2356053583       -9.4437449824  MEMB      140             0.0000000000
     16317       140  OSM       H10T           -2.7774892989      -24.1113268151       -9.2631589492  MEMB      140             0.0000000000
     16318       140  OSM       C11S           -3.6365914961      -25.4359346621       -8.8510100237  MEMB      140             0.0000000000
     16319       140  OSM       H11S           -2.7042821136      -25.9817828210       -9.1460308487  MEMB      140             0.0000000000
     16320       140  OSM       H11T           -4.5432240613      -25.9026915000       -9.2294951379  MEMB      140             0.0000000000
     16321       140  OSM       C12S           -3.7666956945      -25.3587199716       -7.2629310136  MEMB      140             0.0000000000
     16322       140  OSM       H12S           -4.3740949541      -26.1544670692       -6.8268574380  MEMB      140             0.0000000000
     16323       140  OSM       H12T           -4.2530677966      -24.3808437208       -7.0384138052  MEMB      140             0.0000000000
     16324       140  OSM       C13S           -2.5010400262      -25.5201510391       -6.3685304700  MEMB      140             0.0000000000
     16325       140  OSM       H13S           -2.5482011308      -24.4649503900       -5.9970534883  MEMB      140             0.0000000000
     16326       140  OSM       H13T           -1.5663444776      -25.8389842242       -6.8757487346  MEMB      140             0.0000000000
     16327       140  OSM       C14S           -2.3536887571      -25.8813477783       -4.9344095271  MEMB      140             0.0000000000
     16328       140  OSM       H14S           -2.5476342526      -26.9515202997       -4.8811893530  MEMB      140             0.0000000000
     16329       140  OSM       H14T           -3.0731539737      -25.2373993177       -4.3619892304  MEMB      140             0.0000000000
     16330       140  OSM       C15S           -0.9601621862      -25.6080488846       -4.3693987667  MEMB      140             0.0000000000
     16331       140  OSM       H15S           -0.8694073927      -24.5493379457       -4.1350093246  MEMB      140             0.0000000000
     16332       140  OSM       H15T           -0.0448592048      -25.8467184479       -4.9627403662  MEMB      140             0.0000000000
     16333       140  OSM       C16S           -0.9038785045      -26.0942619633       -2.9726263176  MEMB      140             0.0000000000
     16334       140  OSM       H16S           -0.2191482734      -25.3858562848       -2.5123243038  MEMB      140             0.0000000000
     16335       140  OSM       H16T           -0.5564626354      -27.1454738139       -2.9632819276  MEMB      140             0.0000000000
     16336       140  OSM       C17S           -2.0795576447      -25.7562489228       -2.1045418962  MEMB      140             0.0000000000
     16337       140  OSM       H17S           -2.9254363946      -26.2989316592       -2.5519876696  MEMB      140             0.0000000000
     16338       140  OSM       H17T           -2.2887378835      -24.6566005138       -2.1407862502  MEMB      140             0.0000000000
     16339       140  OSM       C18S           -1.9020557191      -26.1752827922       -0.6554803457  MEMB      140             0.0000000000
     16340       140  OSM       H18S           -1.1077542224      -25.5934955966       -0.1413573408  MEMB      140             0.0000000000
     16341       140  OSM       H18T           -1.6424559479      -27.2524775300       -0.5700493612  MEMB      140             0.0000000000
     16342       140  OSM       H18U           -2.8790584252      -25.9874327798       -0.1628041864  MEMB      140             0.0000000000
     16343       140  OSM       C1F             0.1604014607      -25.8725513713      -16.7769315085  MEMB      140             0.0000000000
     16344       140  OSM       OF              1.1013725117      -25.3388103013      -17.3271559747  MEMB      140             0.0000000000
     16345       140  OSM       C2F             0.2542129481      -26.7251376872      -15.5725128086  MEMB      140             0.0000000000
     16346       140  OSM       H2F             0.6584620025      -27.7030293107      -15.9134962340  MEMB      140             0.0000000000
     16347       140  OSM       H2G            -0.7522087200      -26.8353301247      -15.1271277059  MEMB      140             0.0000000000
     16348       140  OSM       C3F             1.1427979708      -26.1765198357      -14.4753987429  MEMB      140             0.0000000000
     16349       140  OSM       H3F             0.8664689170      -25.1587275089      -14.1299165315  MEMB      140             0.0000000000
     16350       140  OSM       H3G             2.0670646499      -26.0240291015      -15.0161164883  MEMB      140             0.0000000000
     16351       140  OSM       C4F             1.3634567744      -27.2055916585      -13.3543698043  MEMB      140             0.0000000000
     16352       140  OSM       H4F             1.9292522704      -26.7991412251      -12.4945695106  MEMB      140             0.0000000000
     16353       140  OSM       H4G             1.9625050479      -28.0550617648      -13.7556750450  MEMB      140             0.0000000000
     16354       140  OSM       C5F             0.0696424698      -27.7624416414      -12.7987720539  MEMB      140             0.0000000000
     16355       140  OSM       H5F            -0.4809859317      -28.3525483669      -13.5670451830  MEMB      140             0.0000000000
     16356       140  OSM       H5G            -0.5846244870      -26.9376863254      -12.4511911030  MEMB      140             0.0000000000
     16357       140  OSM       C6F             0.3289676701      -28.7073589759      -11.6517110279  MEMB      140             0.0000000000
     16358       140  OSM       H6F             0.7922810012      -28.1896814934      -10.7836309535  MEMB      140             0.0000000000
     16359       140  OSM       H6G             1.1083194806      -29.4146688584      -11.9986534059  MEMB      140             0.0000000000
     16360       140  OSM       C7F            -0.9664860263      -29.4829764570      -11.3828284065  MEMB      140             0.0000000000
     16361       140  OSM       H7F            -0.8660971522      -30.2157286883      -10.6223185550  MEMB      140             0.0000000000
     16362       140  OSM       H7G            -1.2650384643      -30.0903766623      -12.2585338277  MEMB      140             0.0000000000
     16363       140  OSM       C8F            -2.1470259351      -28.7513316686      -10.7521428810  MEMB      140             0.0000000000
     16364       140  OSM       H8F            -2.9883649952      -29.4936026140      -10.7900509457  MEMB      140             0.0000000000
     16365       140  OSM       H8G            -2.3177600145      -27.8752261904      -11.3757976378  MEMB      140             0.0000000000
     16366       140  OSM       C9F            -1.8025942847      -28.2829989428       -9.3695170074  MEMB      140             0.0000000000
     16367       140  OSM       H9F            -0.7175726203      -28.2175491112       -9.2728337820  MEMB      140             0.0000000000
     16368       140  OSM       C10F           -2.5680228452      -28.2091420580       -8.2516627076  MEMB      140             0.0000000000
     16369       140  OSM       H10F           -2.0929348015      -28.1117710199       -7.2619139321  MEMB      140             0.0000000000
     16370       140  OSM       C11F           -3.9964866868      -28.5980766802       -8.1604295681  MEMB      140             0.0000000000
     16371       140  OSM       H11F           -4.1740711888      -28.8618931437       -9.1968928864  MEMB      140             0.0000000000
     16372       140  OSM       H11G           -4.5851748094      -27.6949845519       -7.9998477360  MEMB      140             0.0000000000
     16373       140  OSM       C12F           -4.6674539371      -29.5940305562       -7.1625306965  MEMB      140             0.0000000000
     16374       140  OSM       H12F           -4.4745417562      -30.6536956512       -7.3551437155  MEMB      140             0.0000000000
     16375       140  OSM       H12G           -5.7485078391      -29.5295399302       -7.3729931244  MEMB      140             0.0000000000
     16376       140  OSM       C13F           -4.6297371465      -29.1446020422       -5.7173431418  MEMB      140             0.0000000000
     16377       140  OSM       H13F           -4.7643762237      -28.0438418492       -5.7736411841  MEMB      140             0.0000000000
     16378       140  OSM       H13G           -3.6391635930      -29.3452674525       -5.2630399916  MEMB      140             0.0000000000
     16379       140  OSM       C14F           -5.8062901621      -29.6775508479       -4.8879720101  MEMB      140             0.0000000000
     16380       140  OSM       H14F           -5.7947273231      -30.7900278862       -4.8918934938  MEMB      140             0.0000000000
     16381       140  OSM       H14G           -6.7610886467      -29.3325212213       -5.3489638332  MEMB      140             0.0000000000
     16382       140  OSM       C15F           -5.7357452366      -29.1363716151       -3.4642287452  MEMB      140             0.0000000000
     16383       140  OSM       H15F           -6.5754307704      -29.5020317343       -2.8357647924  MEMB      140             0.0000000000
     16384       140  OSM       H15G           -5.8471897210      -28.0363371224       -3.5093703778  MEMB      140             0.0000000000
     16385       140  OSM       C16F           -4.3697530024      -29.4130788247       -2.8502233395  MEMB      140             0.0000000000
     16386       140  OSM       H16F           -3.7575414975      -28.4910992838       -2.8066589692  MEMB      140             0.0000000000
     16387       140  OSM       H16G           -3.8517713763      -30.2546075283       -3.3666849282  MEMB      140             0.0000000000
     16388       140  OSM       C17F           -4.4436415276      -29.8293436479       -1.4468932290  MEMB      140             0.0000000000
     16389       140  OSM       H17F           -5.2589224958      -30.5909228937       -1.4639318458  MEMB      140             0.0000000000
     16390       140  OSM       H17G           -4.7842913359      -28.9805233886       -0.8068792732  MEMB      140             0.0000000000
     16391       140  OSM       C18F           -3.1380598402      -30.4453364917       -0.9363259978  MEMB      140             0.0000000000
     16392       140  OSM       H18F           -2.2231238066      -29.8833148522       -1.1474432413  MEMB      140             0.0000000000
     16393       140  OSM       H18G           -3.0744517206      -31.5158758062       -1.2347657648  MEMB      140             0.0000000000
     16394       140  OSM       H18H           -3.1481082175      -30.4146116337        0.1517310978  MEMB      140             0.0000000000
     16395       141  SAPE      N              -9.2599489391      -24.1128919838      -18.9203560373  MEMB      141             0.0000000000
     16396       141  SAPE      HN1            -8.6198097598      -24.8808317408      -19.1786850926  MEMB      141             0.0000000000
     16397       141  SAPE      HN2            -8.5506277397      -23.3385952146      -18.7390694461  MEMB      141             0.0000000000
     16398       141  SAPE      HN3            -9.5355364469      -24.1918248075      -17.9137203800  MEMB      141             0.0000000000
     16399       141  SAPE      C12           -10.1930312132      -23.3892765234      -19.6901467497  MEMB      141             0.0000000000
     16400       141  SAPE      H12A           -9.6543051382      -23.1057397853      -20.6113159589  MEMB      141             0.0000000000
     16401       141  SAPE      H12B          -10.4375409770      -22.5122507569      -19.0734937865  MEMB      141             0.0000000000
     16402       141  SAPE      C11           -11.3211274380      -24.3453873014      -19.7671200083  MEMB      141             0.0000000000
     16403       141  SAPE      H11A          -12.1381180057      -23.8086729354      -20.2561876684  MEMB      141             0.0000000000
     16404       141  SAPE      H11B          -11.6589485258      -24.6983210902      -18.7509481320  MEMB      141             0.0000000000
     16405       141  SAPE      P             -11.5181082561      -26.8163075388      -20.5426873058  MEMB      141             0.0000000000
     16406       141  SAPE      O13           -12.8845174601      -26.7687044316      -21.1081668013  MEMB      141             0.0000000000
     16407       141  SAPE      O14           -10.5501329149      -27.7088185420      -21.1667800375  MEMB      141             0.0000000000
     16408       141  SAPE      O12           -10.9015376389      -25.3807490167      -20.6203252742  MEMB      141             0.0000000000
     16409       141  SAPE      O11           -11.5281168253      -27.0309823476      -18.9933395648  MEMB      141             0.0000000000
     16410       141  SAPE      C1            -12.4649367537      -27.9752176355      -18.4624309238  MEMB      141             0.0000000000
     16411       141  SAPE      HA            -12.4866259480      -28.9284716995      -19.0339418666  MEMB      141             0.0000000000
     16412       141  SAPE      HB            -12.1279028421      -28.1694831271      -17.4232686208  MEMB      141             0.0000000000
     16413       141  SAPE      C2            -13.8921769871      -27.4068879222      -18.3515690064  MEMB      141             0.0000000000
     16414       141  SAPE      HS            -14.3540816215      -27.2705814392      -19.3359927084  MEMB      141             0.0000000000
     16415       141  SAPE      O21           -13.6852994179      -26.1242208375      -17.9137061891  MEMB      141             0.0000000000
     16416       141  SAPE      C21           -14.6252950412      -25.2427703484      -17.9475128460  MEMB      141             0.0000000000
     16417       141  SAPE      O22           -15.8140154095      -25.3738805525      -18.1209849605  MEMB      141             0.0000000000
     16418       141  SAPE      C22           -14.0350748036      -24.0146810821      -17.5056318074  MEMB      141             0.0000000000
     16419       141  SAPE      H2R           -13.0803707166      -23.5975747446      -17.8755880659  MEMB      141             0.0000000000
     16420       141  SAPE      H2S           -14.8557579049      -23.2812492422      -17.3305963453  MEMB      141             0.0000000000
     16421       141  SAPE      C3            -14.8291982448      -28.2060052568      -17.4259883268  MEMB      141             0.0000000000
     16422       141  SAPE      HX            -14.9659489275      -29.2285893325      -17.8552173342  MEMB      141             0.0000000000
     16423       141  SAPE      HY            -15.8001491266      -27.6653326227      -17.4407693824  MEMB      141             0.0000000000
     16424       141  SAPE      O31           -14.2734896874      -28.1856875919      -16.1087497388  MEMB      141             0.0000000000
     16425       141  SAPE      C31           -14.1658101863      -29.2565502246      -15.3841595652  MEMB      141             0.0000000000
     16426       141  SAPE      O32           -14.7586514338      -30.3132527921      -15.5113725834  MEMB      141             0.0000000000
     16427       141  SAPE      C32           -13.2736642330      -28.9108077813      -14.1905013912  MEMB      141             0.0000000000
     16428       141  SAPE      H2X           -13.8071320005      -29.1381926421      -13.2450089703  MEMB      141             0.0000000000
     16429       141  SAPE      H2Y           -13.0548882974      -27.8229223594      -14.1979039897  MEMB      141             0.0000000000
     16430       141  SAPE      C23           -13.7497148155      -24.6768970831      -16.2388779870  MEMB      141             0.0000000000
     16431       141  SAPE      H3R           -14.7950971459      -24.7907829908      -15.7270647597  MEMB      141             0.0000000000
     16432       141  SAPE      H3S           -13.3818998078      -23.6679796183      -16.1010407642  MEMB      141             0.0000000000
     16433       141  SAPE      C24           -12.4043235122      -25.4079096443      -15.6828916035  MEMB      141             0.0000000000
     16434       141  SAPE      H4R           -12.4072100957      -26.4181715565      -15.9418206177  MEMB      141             0.0000000000
     16435       141  SAPE      H4S           -12.3454069901      -25.7086551351      -14.5939821731  MEMB      141             0.0000000000
     16436       141  SAPE      C25           -11.0351950610      -24.8788798165      -15.8678039195  MEMB      141             0.0000000000
     16437       141  SAPE      H5R           -11.1480336611      -24.2472380738      -16.7652175883  MEMB      141             0.0000000000
     16438       141  SAPE      C26           -10.4279963590      -23.9986733634      -15.0983142848  MEMB      141             0.0000000000
     16439       141  SAPE      H6R            -9.6085316750      -23.5829143388      -15.4368865817  MEMB      141             0.0000000000
     16440       141  SAPE      C27           -10.4968268270      -23.0718816169      -13.8999387125  MEMB      141             0.0000000000
     16441       141  SAPE      H7R            -9.3479308090      -23.2279686010      -13.6069827475  MEMB      141             0.0000000000
     16442       141  SAPE      H7S           -10.3719172437      -24.0253897546      -13.0924691688  MEMB      141             0.0000000000
     16443       141  SAPE      C28           -11.9727644554      -21.2718075334      -13.2372052166  MEMB      141             0.0000000000
     16444       141  SAPE      H8R           -11.5657362854      -21.3894314856      -14.1008436000  MEMB      141             0.0000000000
     16445       141  SAPE      C29           -12.5816509064      -21.2503126946      -11.6226362876  MEMB      141             0.0000000000
     16446       141  SAPE      H9R           -13.3153926662      -20.5878817700      -11.2682027390  MEMB      141             0.0000000000
     16447       141  SAPE      C210          -12.2091490347      -22.3794306083      -10.3643454355  MEMB      141             0.0000000000
     16448       141  SAPE      H10R          -11.3197403212      -22.1095956970       -9.8179799512  MEMB      141             0.0000000000
     16449       141  SAPE      H10S          -11.5138051783      -23.3919991349      -10.5215495237  MEMB      141             0.0000000000
     16450       141  SAPE      C211          -13.4463369266      -22.8814557176       -9.8361616710  MEMB      141             0.0000000000
     16451       141  SAPE      H11R          -14.0397543075      -22.0209718840       -9.5902867344  MEMB      141             0.0000000000
     16452       141  SAPE      C212          -13.8403868721      -24.1335247828       -9.6205682623  MEMB      141             0.0000000000
     16453       141  SAPE      H12R          -14.8534468236      -24.2257208080       -9.2428377158  MEMB      141             0.0000000000
     16454       141  SAPE      C213          -13.1134450823      -25.4364870302       -9.8476895585  MEMB      141             0.0000000000
     16455       141  SAPE      H13R          -12.6005833633      -25.5010321404      -10.8225135884  MEMB      141             0.0000000000
     16456       141  SAPE      H13S          -13.8634080137      -26.2446080937       -9.9064549880  MEMB      141             0.0000000000
     16457       141  SAPE      C214          -12.1274840989      -25.7154971887       -8.7407748276  MEMB      141             0.0000000000
     16458       141  SAPE      H14R          -11.2023721587      -25.1208365048       -8.7875778555  MEMB      141             0.0000000000
     16459       141  SAPE      C215          -12.3134817932      -26.4187344560       -7.6122174717  MEMB      141             0.0000000000
     16460       141  SAPE      H15R          -11.4183952038      -26.5778830092       -6.9958478247  MEMB      141             0.0000000000
     16461       141  SAPE      C216          -13.5630903551      -27.1251938587       -7.1354139324  MEMB      141             0.0000000000
     16462       141  SAPE      H16R          -13.3313608750      -27.9499580426       -6.4334443235  MEMB      141             0.0000000000
     16463       141  SAPE      H16S          -14.1078570387      -27.5885248695       -7.9866696425  MEMB      141             0.0000000000
     16464       141  SAPE      C217          -14.6298494949      -26.2258683548       -6.4850844539  MEMB      141             0.0000000000
     16465       141  SAPE      H17R          -15.5387402252      -26.7853325531       -6.5054927917  MEMB      141             0.0000000000
     16466       141  SAPE      H17S          -14.8159505395      -25.3321930767       -7.1374177846  MEMB      141             0.0000000000
     16467       141  SAPE      C218          -14.4004422700      -25.6123291628       -5.0895008865  MEMB      141             0.0000000000
     16468       141  SAPE      H18R          -15.0727840180      -24.7448900122       -5.0733928083  MEMB      141             0.0000000000
     16469       141  SAPE      H18S          -13.4587090026      -25.2939920651       -5.5816703598  MEMB      141             0.0000000000
     16470       141  SAPE      C219          -14.1813560313      -26.3337238135       -3.6216251705  MEMB      141             0.0000000000
     16471       141  SAPE      H19R          -13.2173060794      -26.2265286153       -3.1274048797  MEMB      141             0.0000000000
     16472       141  SAPE      H19S          -13.6833359335      -27.1867951648       -4.1406190521  MEMB      141             0.0000000000
     16473       141  SAPE      C220          -15.2940694245      -26.3877491447       -2.3175231278  MEMB      141             0.0000000000
     16474       141  SAPE      H20R          -15.8357077560      -25.5860556706       -2.1374360847  MEMB      141             0.0000000000
     16475       141  SAPE      H20S          -15.7266879600      -27.0532012134       -1.5611931346  MEMB      141             0.0000000000
     16476       141  SAPE      H20T          -16.1429975115      -27.0853415978       -2.3413306947  MEMB      141             0.0000000000
     16477       141  SAPE      C33           -12.0190627068      -29.7689546813      -14.3846444230  MEMB      141             0.0000000000
     16478       141  SAPE      H3X           -11.3541572722      -29.2310315244      -15.0967920344  MEMB      141             0.0000000000
     16479       141  SAPE      H3Y           -12.3143599250      -30.7464363624      -14.8346723711  MEMB      141             0.0000000000
     16480       141  SAPE      C34           -11.2134092638      -30.0815838359      -13.1319391349  MEMB      141             0.0000000000
     16481       141  SAPE      H4X           -10.4148779257      -30.8341407088      -13.3402058290  MEMB      141             0.0000000000
     16482       141  SAPE      H4Y           -11.8966005500      -30.5304409597      -12.3813054231  MEMB      141             0.0000000000
     16483       141  SAPE      C35           -10.6060467707      -28.7997672562      -12.5801940334  MEMB      141             0.0000000000
     16484       141  SAPE      H5X           -11.4412440638      -28.0967723426      -12.4216135227  MEMB      141             0.0000000000
     16485       141  SAPE      H5Y            -9.8710210155      -28.3374936255      -13.2906755456  MEMB      141             0.0000000000
     16486       141  SAPE      C36           -10.0651743312      -28.9829403640      -11.1786112453  MEMB      141             0.0000000000
     16487       141  SAPE      H6X            -9.2570217767      -29.6101392217      -11.1633350655  MEMB      141             0.0000000000
     16488       141  SAPE      H6Y           -10.5476717901      -29.7587137845      -10.5810113972  MEMB      141             0.0000000000
     16489       141  SAPE      C37            -9.5442707047      -27.7075241944      -10.5026025827  MEMB      141             0.0000000000
     16490       141  SAPE      H7X           -10.4582615230      -27.3552840879      -10.0333418671  MEMB      141             0.0000000000
     16491       141  SAPE      H7Y            -9.0935966867      -27.0043849645      -11.2482680960  MEMB      141             0.0000000000
     16492       141  SAPE      C38            -8.4735474776      -27.8066864040       -9.4152697623  MEMB      141             0.0000000000
     16493       141  SAPE      H8X            -8.3555893801      -26.9184529201       -8.7965195306  MEMB      141             0.0000000000
     16494       141  SAPE      H8Y            -7.5370436169      -27.8369063169      -10.0036787895  MEMB      141             0.0000000000
     16495       141  SAPE      C39            -8.6793762252      -28.9447165508       -8.4409547266  MEMB      141             0.0000000000
     16496       141  SAPE      H9X            -7.8197110285      -29.1487983172       -7.7544085018  MEMB      141             0.0000000000
     16497       141  SAPE      H9Y            -8.9033462760      -29.7201209280       -9.1757640142  MEMB      141             0.0000000000
     16498       141  SAPE      C310           -9.8918211970      -28.9374651807       -7.6327155085  MEMB      141             0.0000000000
     16499       141  SAPE      H10X          -10.7134121352      -28.9777542505       -8.3819827614  MEMB      141             0.0000000000
     16500       141  SAPE      H10Y           -9.7860974681      -27.9969340951       -7.0675756488  MEMB      141             0.0000000000
     16501       141  SAPE      C311          -10.0307114047      -30.0593810002       -6.6503512963  MEMB      141             0.0000000000
     16502       141  SAPE      H11X           -9.1540757198      -30.0741875234       -5.9602367795  MEMB      141             0.0000000000
     16503       141  SAPE      H11Y           -9.9309168846      -31.0490084715       -7.1375616437  MEMB      141             0.0000000000
     16504       141  SAPE      C312          -11.4313556954      -29.8377394214       -6.0157255626  MEMB      141             0.0000000000
     16505       141  SAPE      H12X          -11.9381133004      -30.7223227898       -5.6214994630  MEMB      141             0.0000000000
     16506       141  SAPE      H12Y          -12.2119083083      -29.7335857370       -6.7750937642  MEMB      141             0.0000000000
     16507       141  SAPE      C313          -11.4622261582      -28.8389569437       -4.8438160759  MEMB      141             0.0000000000
     16508       141  SAPE      H13X          -12.4364897816      -29.0133099102       -4.3614998945  MEMB      141             0.0000000000
     16509       141  SAPE      H13Y          -11.4636989291      -27.8105159481       -5.2404568775  MEMB      141             0.0000000000
     16510       141  SAPE      C314          -10.2864823865      -28.9181261155       -3.8481115851  MEMB      141             0.0000000000
     16511       141  SAPE      H14X           -9.4074052314      -28.5102419765       -4.3946556891  MEMB      141             0.0000000000
     16512       141  SAPE      H14Y          -10.0606407669      -29.9456842443       -3.5639793715  MEMB      141             0.0000000000
     16513       141  SAPE      C315          -10.4544551978      -28.1893148056       -2.5220084545  MEMB      141             0.0000000000
     16514       141  SAPE      H15X           -9.9733739703      -28.6416047028       -1.6309103936  MEMB      141             0.0000000000
     16515       141  SAPE      H15Y          -11.4768581003      -27.9637017397       -2.2744885573  MEMB      141             0.0000000000
     16516       141  SAPE      C316           -9.9719500394      -26.8238514834       -2.6585577027  MEMB      141             0.0000000000
     16517       141  SAPE      H16X          -10.6269492362      -26.2974749140       -3.4173459932  MEMB      141             0.0000000000
     16518       141  SAPE      H16Y           -8.9166238900      -26.8708793534       -3.0035686633  MEMB      141             0.0000000000
     16519       141  SAPE      C317           -9.9961275004      -26.0527266948       -1.3807456331  MEMB      141             0.0000000000
     16520       141  SAPE      H17X          -10.0732614395      -25.0363100630       -1.6250920405  MEMB      141             0.0000000000
     16521       141  SAPE      H17Y           -9.0345809791      -25.8856026509       -0.8891650604  MEMB      141             0.0000000000
     16522       141  SAPE      C318          -11.2427501862      -26.2050081551       -0.5907806239  MEMB      141             0.0000000000
     16523       141  SAPE      H18X          -11.3976571264      -25.2787204490       -0.0802167915  MEMB      141             0.0000000000
     16524       141  SAPE      H18Y          -11.0910584189      -27.0501160264        0.0763654322  MEMB      141             0.0000000000
     16525       141  SAPE      H18Z          -12.2007563106      -26.1849390699       -1.1222698597  MEMB      141             0.0000000000
     16526       142  SLPC      N             -12.9633762936       23.6031607464      -16.3270167739  MEMB      142             0.0000000000
     16527       142  SLPC      C13           -14.3365559602       24.1329044816      -16.6587705880  MEMB      142             0.0000000000
     16528       142  SLPC      H13A          -14.3671138612       25.2029146447      -16.4448218573  MEMB      142             0.0000000000
     16529       142  SLPC      H13B          -14.5519184879       24.0307253033      -17.7146946471  MEMB      142             0.0000000000
     16530       142  SLPC      H13C          -15.1484842683       23.6772118932      -16.0936977627  MEMB      142             0.0000000000
     16531       142  SLPC      C14           -12.8362942237       22.2253384569      -16.7999724176  MEMB      142             0.0000000000
     16532       142  SLPC      H14A          -12.6628738757       22.1021323866      -17.8590548764  MEMB      142             0.0000000000
     16533       142  SLPC      H14B          -12.1127227486       21.6291579675      -16.2506263784  MEMB      142             0.0000000000
     16534       142  SLPC      H14C          -13.7878426309       21.7038392374      -16.6562251307  MEMB      142             0.0000000000
     16535       142  SLPC      C15           -12.7247176070       23.6848267998      -14.8533478238  MEMB      142             0.0000000000
     16536       142  SLPC      H15A          -13.0801990923       22.8067744232      -14.3342099537  MEMB      142             0.0000000000
     16537       142  SLPC      H15B          -11.6671516105       23.8219163046      -14.6540091879  MEMB      142             0.0000000000
     16538       142  SLPC      H15C          -13.2387640243       24.5458166533      -14.4435981643  MEMB      142             0.0000000000
     16539       142  SLPC      C12           -11.8272331081       24.3052371449      -17.0226550408  MEMB      142             0.0000000000
     16540       142  SLPC      H12A          -11.8425231879       24.0781594039      -18.0817302686  MEMB      142             0.0000000000
     16541       142  SLPC      H12B          -10.9369736780       23.8478478918      -16.6067966277  MEMB      142             0.0000000000
     16542       142  SLPC      C11           -11.6457850513       25.8192178516      -16.8938690725  MEMB      142             0.0000000000
     16543       142  SLPC      H11A          -10.7163004354       26.0631339606      -17.4673763579  MEMB      142             0.0000000000
     16544       142  SLPC      H11B          -11.5247556226       26.1142035979      -15.8327004311  MEMB      142             0.0000000000
     16545       142  SLPC      P             -12.5764328881       28.0665036313      -17.7766760685  MEMB      142             0.0000000000
     16546       142  SLPC      O13           -12.2617846113       28.2810297919      -19.1953700617  MEMB      142             0.0000000000
     16547       142  SLPC      O14           -13.8196056867       28.7169372212      -17.2921628193  MEMB      142             0.0000000000
     16548       142  SLPC      O12           -12.7400041282       26.5070246260      -17.4441539521  MEMB      142             0.0000000000
     16549       142  SLPC      O11           -11.3238004357       28.5876862029      -16.9112163759  MEMB      142             0.0000000000
     16550       142  SLPC      C1            -11.5028925717       29.4488044755      -15.7761160686  MEMB      142             0.0000000000
     16551       142  SLPC      HA            -11.7652802858       30.4903253401      -16.0677859134  MEMB      142             0.0000000000
     16552       142  SLPC      HB            -12.3174162955       29.0300097636      -15.1434578472  MEMB      142             0.0000000000
     16553       142  SLPC      C2            -10.2867897010       29.5576223182      -14.8142384222  MEMB      142             0.0000000000
     16554       142  SLPC      HS             -9.4397748785       30.1596513030      -15.2260845839  MEMB      142             0.0000000000
     16555       142  SLPC      O21            -9.8243948022       28.2836625238      -14.4820079994  MEMB      142             0.0000000000
     16556       142  SLPC      C21            -9.1015931794       27.6785366570      -15.3361576395  MEMB      142             0.0000000000
     16557       142  SLPC      O22            -8.5244281086       28.1506718495      -16.3128608409  MEMB      142             0.0000000000
     16558       142  SLPC      C22            -8.9629048960       26.3158601717      -14.6323135557  MEMB      142             0.0000000000
     16559       142  SLPC      H2R            -9.8905358811       25.8116138775      -14.3865304382  MEMB      142             0.0000000000
     16560       142  SLPC      H2S            -8.7690975080       25.5278160536      -15.2379426223  MEMB      142             0.0000000000
     16561       142  SLPC      C3            -10.7015354280       30.2156178850      -13.4899685664  MEMB      142             0.0000000000
     16562       142  SLPC      HX            -11.0118630893       31.2555438162      -13.7174460251  MEMB      142             0.0000000000
     16563       142  SLPC      HY             -9.7952274907       30.2136733856      -12.8768806175  MEMB      142             0.0000000000
     16564       142  SLPC      O31           -11.6951107296       29.4400078027      -12.7973993216  MEMB      142             0.0000000000
     16565       142  SLPC      C31           -12.7259669577       30.0830679447      -12.2799272574  MEMB      142             0.0000000000
     16566       142  SLPC      O32           -12.8928253991       31.2889458644      -12.2672651201  MEMB      142             0.0000000000
     16567       142  SLPC      C32           -13.6751464685       29.0076237781      -11.7561931856  MEMB      142             0.0000000000
     16568       142  SLPC      H2X           -14.5580674226       29.4707931606      -11.2762985791  MEMB      142             0.0000000000
     16569       142  SLPC      H2Y           -13.1032049328       28.4277773471      -11.0003548197  MEMB      142             0.0000000000
     16570       142  SLPC      C23            -7.8286177023       26.0595269831      -13.6805542737  MEMB      142             0.0000000000
     16571       142  SLPC      H3R            -6.9091386136       26.6747363500      -13.6582290259  MEMB      142             0.0000000000
     16572       142  SLPC      H3S            -7.4835392947       24.9906259377      -13.7105294478  MEMB      142             0.0000000000
     16573       142  SLPC      C24            -8.5214652488       26.6332870227      -12.6193164967  MEMB      142             0.0000000000
     16574       142  SLPC      H4R            -9.4457838487       26.0909308622      -12.4011580560  MEMB      142             0.0000000000
     16575       142  SLPC      H4S            -8.4651088291       27.7496566237      -12.6257436869  MEMB      142             0.0000000000
     16576       142  SLPC      C25            -7.8282434483       26.4105047112      -11.5492309232  MEMB      142             0.0000000000
     16577       142  SLPC      H5R            -6.7544968890       26.7762479708      -11.7735285943  MEMB      142             0.0000000000
     16578       142  SLPC      H5S            -7.4290943127       25.3010374574      -11.6139908333  MEMB      142             0.0000000000
     16579       142  SLPC      C26            -8.6312145901       27.2565275915      -10.2158959221  MEMB      142             0.0000000000
     16580       142  SLPC      H6R            -8.3623616165       28.2535527064      -10.0197396450  MEMB      142             0.0000000000
     16581       142  SLPC      H6S            -8.2308850032       27.2472875838       -9.0887439887  MEMB      142             0.0000000000
     16582       142  SLPC      C27            -9.9006194316       26.7109918419       -9.7704695946  MEMB      142             0.0000000000
     16583       142  SLPC      H7R            -9.7262519208       25.7921932738      -10.3786088073  MEMB      142             0.0000000000
     16584       142  SLPC      H7S           -10.6029556097       27.3444438693      -10.2912354433  MEMB      142             0.0000000000
     16585       142  SLPC      C28           -10.0260607145       26.6884165167       -8.2041560832  MEMB      142             0.0000000000
     16586       142  SLPC      H8R            -9.2102899662       26.3951366639       -7.5455857971  MEMB      142             0.0000000000
     16587       142  SLPC      H8S           -10.8355244784       25.9781148793       -8.0304405252  MEMB      142             0.0000000000
     16588       142  SLPC      C29           -10.1657335282       28.0331070539       -7.6324691768  MEMB      142             0.0000000000
     16589       142  SLPC      H9R           -10.9705409242       28.4845900478       -8.1573992486  MEMB      142             0.0000000000
     16590       142  SLPC      C210           -9.4431681237       28.7089129457       -6.7226054654  MEMB      142             0.0000000000
     16591       142  SLPC      H10R           -9.5575459855       29.7872281335       -6.6604992627  MEMB      142             0.0000000000
     16592       142  SLPC      C211           -8.2313713169       28.2678194420       -5.9897758285  MEMB      142             0.0000000000
     16593       142  SLPC      H11R           -7.5817350220       29.1392740547       -5.7056497498  MEMB      142             0.0000000000
     16594       142  SLPC      H11S           -7.6868676355       27.5080932302       -6.5856081183  MEMB      142             0.0000000000
     16595       142  SLPC      C212           -8.3925598301       27.6511153737       -4.7294038547  MEMB      142             0.0000000000
     16596       142  SLPC      H12R           -8.1079968382       26.6199043163       -4.7772609860  MEMB      142             0.0000000000
     16597       142  SLPC      C213           -8.8911281984       28.2278683916       -3.6691171205  MEMB      142             0.0000000000
     16598       142  SLPC      H13R           -8.7464879981       27.7397776790       -2.7000864277  MEMB      142             0.0000000000
     16599       142  SLPC      C214           -9.3542060022       29.6391501315       -3.7395196908  MEMB      142             0.0000000000
     16600       142  SLPC      H14R          -10.4599651469       29.5606826481       -3.8258981993  MEMB      142             0.0000000000
     16601       142  SLPC      H14S           -8.9749758630       30.2071402127       -4.6139092649  MEMB      142             0.0000000000
     16602       142  SLPC      C215           -8.9498872823       30.3696646530       -2.4931917962  MEMB      142             0.0000000000
     16603       142  SLPC      H15R           -9.0929923991       31.4644692991       -2.6208205490  MEMB      142             0.0000000000
     16604       142  SLPC      H15S           -7.8723481199       30.1903495171       -2.2622758475  MEMB      142             0.0000000000
     16605       142  SLPC      C216           -9.9051012098       29.8734062696       -1.4310509762  MEMB      142             0.0000000000
     16606       142  SLPC      H16R           -9.6865763092       28.8074403758       -1.1510137560  MEMB      142             0.0000000000
     16607       142  SLPC      H16S          -10.9454986862       30.0537954421       -1.7251373029  MEMB      142             0.0000000000
     16608       142  SLPC      C217           -9.8843768480       30.6141598281       -0.2041038982  MEMB      142             0.0000000000
     16609       142  SLPC      H17R          -10.5529457303       30.3088357102        0.5807044081  MEMB      142             0.0000000000
     16610       142  SLPC      H17S           -9.9590234730       31.7193695543       -0.3383326483  MEMB      142             0.0000000000
     16611       142  SLPC      C218           -8.6660364761       30.1145131217        0.2941094585  MEMB      142             0.0000000000
     16612       142  SLPC      H18R           -8.9169103226       30.5766420507        1.2635188920  MEMB      142             0.0000000000
     16613       142  SLPC      H18S           -7.8331509384       30.6557674644       -0.2449936429  MEMB      142             0.0000000000
     16614       142  SLPC      H18T           -8.3643047953       29.2945188091        0.9452124097  MEMB      142             0.0000000000
     16615       142  SLPC      C33           -14.1902943375       28.1004374575      -12.9066450979  MEMB      142             0.0000000000
     16616       142  SLPC      H3X           -13.3602666998       27.5038084218      -13.3461467233  MEMB      142             0.0000000000
     16617       142  SLPC      H3Y           -14.5742718735       28.7675551550      -13.7158860266  MEMB      142             0.0000000000
     16618       142  SLPC      C34           -15.3335220354       27.1604823312      -12.4734008440  MEMB      142             0.0000000000
     16619       142  SLPC      H4X           -15.7014495954       26.5704512846      -13.3436012893  MEMB      142             0.0000000000
     16620       142  SLPC      H4Y           -16.1800443867       27.7963775840      -12.1372700122  MEMB      142             0.0000000000
     16621       142  SLPC      C35           -14.9336803736       26.1928596890      -11.3559402369  MEMB      142             0.0000000000
     16622       142  SLPC      H5X           -14.3925549607       26.7259901679      -10.5519480369  MEMB      142             0.0000000000
     16623       142  SLPC      H5Y           -14.2802863266       25.3824558899      -11.7634942114  MEMB      142             0.0000000000
     16624       142  SLPC      C36           -16.0927880227       25.5453136291      -10.6093135813  MEMB      142             0.0000000000
     16625       142  SLPC      H6X           -16.5689181663       24.8897279439      -11.3569705902  MEMB      142             0.0000000000
     16626       142  SLPC      H6Y           -16.8648534775       26.2656806077      -10.2615294170  MEMB      142             0.0000000000
     16627       142  SLPC      C37           -15.5325370284       24.7879450384       -9.3862314703  MEMB      142             0.0000000000
     16628       142  SLPC      H7X           -14.5921672520       24.3215332791       -9.7307203770  MEMB      142             0.0000000000
     16629       142  SLPC      H7Y           -16.1514808343       23.9596830974       -8.9900667377  MEMB      142             0.0000000000
     16630       142  SLPC      C38           -15.2510245318       25.7340315492       -8.2147792462  MEMB      142             0.0000000000
     16631       142  SLPC      H8X           -16.1982559829       26.2617844827       -7.9573043214  MEMB      142             0.0000000000
     16632       142  SLPC      H8Y           -14.4969121168       26.4789480085       -8.5413794105  MEMB      142             0.0000000000
     16633       142  SLPC      C39           -14.5682955368       25.0954021068       -7.0064987211  MEMB      142             0.0000000000
     16634       142  SLPC      H9X           -15.2683998007       24.4415757932       -6.4424868814  MEMB      142             0.0000000000
     16635       142  SLPC      H9Y           -14.2565525025       25.9182982160       -6.3250079207  MEMB      142             0.0000000000
     16636       142  SLPC      C310          -13.3170449108       24.3067103024       -7.3834170158  MEMB      142             0.0000000000
     16637       142  SLPC      H10X          -12.5251554378       24.9228604883       -7.8678956999  MEMB      142             0.0000000000
     16638       142  SLPC      H10Y          -13.5695451118       23.5157389185       -8.1195130743  MEMB      142             0.0000000000
     16639       142  SLPC      C311          -12.7186484553       23.6248061351       -6.1659056023  MEMB      142             0.0000000000
     16640       142  SLPC      H11X          -11.9586502701       23.0273498561       -6.6464583517  MEMB      142             0.0000000000
     16641       142  SLPC      H11Y          -13.3714021278       22.8686756338       -5.6912539558  MEMB      142             0.0000000000
     16642       142  SLPC      C312          -12.0926306568       24.5887260420       -5.1557123221  MEMB      142             0.0000000000
     16643       142  SLPC      H12X          -12.8073975274       25.3809543427       -4.8595237592  MEMB      142             0.0000000000
     16644       142  SLPC      H12Y          -11.2710802497       25.1329207230       -5.6490931306  MEMB      142             0.0000000000
     16645       142  SLPC      C313          -11.5102709157       23.8522285455       -3.9461715264  MEMB      142             0.0000000000
     16646       142  SLPC      H13X          -10.6861243932       23.2146033257       -4.3281596370  MEMB      142             0.0000000000
     16647       142  SLPC      H13Y          -12.2676026560       23.1665982129       -3.5144262507  MEMB      142             0.0000000000
     16648       142  SLPC      C314          -11.0166196498       24.7996619429       -2.8548659715  MEMB      142             0.0000000000
     16649       142  SLPC      H14X          -10.4725813939       25.6581977413       -3.3131375042  MEMB      142             0.0000000000
     16650       142  SLPC      H14Y          -10.3263801990       24.2791825571       -2.1493475862  MEMB      142             0.0000000000
     16651       142  SLPC      C315          -12.1571883514       25.2954458918       -1.9838653745  MEMB      142             0.0000000000
     16652       142  SLPC      H15X          -12.4992088161       24.4651276864       -1.3285146817  MEMB      142             0.0000000000
     16653       142  SLPC      H15Y          -13.0298417009       25.6755075516       -2.5608661080  MEMB      142             0.0000000000
     16654       142  SLPC      C316          -11.6466776485       26.3324538645       -1.0445380971  MEMB      142             0.0000000000
     16655       142  SLPC      H16X          -11.0743651147       27.1326354097       -1.5926254749  MEMB      142             0.0000000000
     16656       142  SLPC      H16Y          -10.9472407643       25.8478594112       -0.3292886255  MEMB      142             0.0000000000
     16657       142  SLPC      C317          -12.7896029780       26.9972327927       -0.3543723951  MEMB      142             0.0000000000
     16658       142  SLPC      H17X          -13.1028985093       26.4506121679        0.5713383229  MEMB      142             0.0000000000
     16659       142  SLPC      H17Y          -13.6974962859       27.1173201853       -0.9653964856  MEMB      142             0.0000000000
     16660       142  SLPC      C318          -12.1642573833       28.3376342930       -0.2449972140  MEMB      142             0.0000000000
     16661       142  SLPC      H18X          -12.6193980482       29.2486547716       -0.6584881583  MEMB      142             0.0000000000
     16662       142  SLPC      H18Y          -11.1761319392       28.2765010653        0.2752865006  MEMB      142             0.0000000000
     16663       142  SLPC      H18Z          -12.6662679515       28.9003116849        0.4346080815  MEMB      142             0.0000000000
     16664       143  OSM       N             -29.7190894144        7.4266548128      -21.6984208446  MEMB      143             0.0000000000
     16665       143  OSM       C15           -30.8347603473        6.5744139204      -22.2459059742  MEMB      143             0.0000000000
     16666       143  OSM       H15A          -30.5162446579        5.5342873687      -22.2463265590  MEMB      143             0.0000000000
     16667       143  OSM       H15B          -31.1593945138        6.8457637307      -23.2391292007  MEMB      143             0.0000000000
     16668       143  OSM       H15C          -31.6992765950        6.6556030621      -21.5969107631  MEMB      143             0.0000000000
     16669       143  OSM       C14           -29.9892931560        8.8815297193      -21.8002545679  MEMB      143             0.0000000000
     16670       143  OSM       H14A          -30.6589854341        9.2200282817      -21.0145932671  MEMB      143             0.0000000000
     16671       143  OSM       H14B          -30.3652521204        9.1327209960      -22.7804266324  MEMB      143             0.0000000000
     16672       143  OSM       H14C          -29.0482694045        9.4148461687      -21.6942647530  MEMB      143             0.0000000000
     16673       143  OSM       C13           -29.7052709980        7.1035150116      -20.2305884722  MEMB      143             0.0000000000
     16674       143  OSM       H13A          -30.6643073419        7.2587501497      -19.7571803167  MEMB      143             0.0000000000
     16675       143  OSM       H13B          -28.9678620467        7.6781024641      -19.6773208704  MEMB      143             0.0000000000
     16676       143  OSM       H13C          -29.4273926760        6.0553363171      -20.0968209094  MEMB      143             0.0000000000
     16677       143  OSM       C12           -28.3885090691        7.1375588371      -22.4016468953  MEMB      143             0.0000000000
     16678       143  OSM       H12A          -27.6446687664        7.8736055350      -22.0997986327  MEMB      143             0.0000000000
     16679       143  OSM       H12B          -28.5064562155        7.2847899715      -23.4688799144  MEMB      143             0.0000000000
     16680       143  OSM       C11           -27.6982399397        5.7653842590      -22.2129826075  MEMB      143             0.0000000000
     16681       143  OSM       H11A          -26.7835644869        5.6973293769      -22.8577304117  MEMB      143             0.0000000000
     16682       143  OSM       H11B          -28.4122166727        4.9894142591      -22.5649693098  MEMB      143             0.0000000000
     16683       143  OSM       P             -26.2512275479        6.3574491938      -20.0787253268  MEMB      143             0.0000000000
     16684       143  OSM       O13           -25.0661382289        5.5334764996      -19.7591735512  MEMB      143             0.0000000000
     16685       143  OSM       O14           -26.0244801946        7.6067290219      -20.8362456857  MEMB      143             0.0000000000
     16686       143  OSM       O11           -27.0401655023        6.8290898487      -18.7867178895  MEMB      143             0.0000000000
     16687       143  OSM       O12           -27.3601639514        5.5251079915      -20.8569642273  MEMB      143             0.0000000000
     16688       143  OSM       C1S           -27.4029631050        6.0289800967      -17.6740045219  MEMB      143             0.0000000000
     16689       143  OSM       H1S           -26.5812958029        5.3828845070      -17.4367661256  MEMB      143             0.0000000000
     16690       143  OSM       H1T           -28.2734881710        5.3750442741      -17.8874035511  MEMB      143             0.0000000000
     16691       143  OSM       NF            -27.8520964941        5.8925078764      -15.2894819862  MEMB      143             0.0000000000
     16692       143  OSM       HNF           -28.7601567503        5.6955998878      -14.9679430763  MEMB      143             0.0000000000
     16693       143  OSM       C2S           -27.6671688177        6.8196616166      -16.3554067224  MEMB      143             0.0000000000
     16694       143  OSM       H2S           -26.7921175358        7.4714685630      -16.1227467184  MEMB      143             0.0000000000
     16695       143  OSM       C3S           -28.9113282409        7.6917022803      -16.4834478191  MEMB      143             0.0000000000
     16696       143  OSM       H3S           -29.7556272886        7.0352267399      -16.8209435450  MEMB      143             0.0000000000
     16697       143  OSM       O3            -28.7249867802        8.7456924165      -17.4150514701  MEMB      143             0.0000000000
     16698       143  OSM       HO3           -27.8265901730        8.5716527107      -17.7323778116  MEMB      143             0.0000000000
     16699       143  OSM       C4S           -29.2892849052        8.2797801737      -15.1366745865  MEMB      143             0.0000000000
     16700       143  OSM       H4S           -28.5239330603        8.9095729086      -14.6658931180  MEMB      143             0.0000000000
     16701       143  OSM       C5S           -30.4434311587        8.0628048671      -14.4775518367  MEMB      143             0.0000000000
     16702       143  OSM       H5S           -31.1998140067        7.3979894399      -14.9075786179  MEMB      143             0.0000000000
     16703       143  OSM       C6S           -30.8392562088        8.6251477955      -13.1447334326  MEMB      143             0.0000000000
     16704       143  OSM       H6S           -31.7703499548        8.1166537675      -12.8419916933  MEMB      143             0.0000000000
     16705       143  OSM       H6T           -31.1757959364        9.6836352440      -13.2452515455  MEMB      143             0.0000000000
     16706       143  OSM       C7S           -29.7779335333        8.4598667023      -12.0205882585  MEMB      143             0.0000000000
     16707       143  OSM       H7S           -28.7533659295        8.8365670835      -12.2601626527  MEMB      143             0.0000000000
     16708       143  OSM       H7T           -29.6418383935        7.3862975458      -11.8010794768  MEMB      143             0.0000000000
     16709       143  OSM       C8S           -30.1853945575        9.1736390251      -10.7345745056  MEMB      143             0.0000000000
     16710       143  OSM       H8S           -31.2029121573        8.8281257520      -10.5026897299  MEMB      143             0.0000000000
     16711       143  OSM       H8T           -30.3116993034       10.2693431397      -10.7952964993  MEMB      143             0.0000000000
     16712       143  OSM       C9S           -29.2409798501        8.7979599984       -9.5900795043  MEMB      143             0.0000000000
     16713       143  OSM       H9S           -28.2886588346        9.3676793378       -9.6686354882  MEMB      143             0.0000000000
     16714       143  OSM       H9T           -28.8351285804        7.8035980816       -9.7500828589  MEMB      143             0.0000000000
     16715       143  OSM       C10S          -29.9928432028        8.7967575644       -8.2383311627  MEMB      143             0.0000000000
     16716       143  OSM       H10S          -30.5873331742        7.9012717574       -8.0568725335  MEMB      143             0.0000000000
     16717       143  OSM       H10T          -30.9374623951        9.3747790230       -8.4101360635  MEMB      143             0.0000000000
     16718       143  OSM       C11S          -29.1254820139        9.1686028726       -6.9790321781  MEMB      143             0.0000000000
     16719       143  OSM       H11S          -28.8023577033       10.2350729175       -6.8361313132  MEMB      143             0.0000000000
     16720       143  OSM       H11T          -28.1369847168        8.6867690520       -6.9927542375  MEMB      143             0.0000000000
     16721       143  OSM       C12S          -29.8875739829        8.8759774807       -5.7065847039  MEMB      143             0.0000000000
     16722       143  OSM       H12S          -30.0660886747        7.8057719070       -5.6078579643  MEMB      143             0.0000000000
     16723       143  OSM       H12T          -30.8679917532        9.4356376411       -5.6694393678  MEMB      143             0.0000000000
     16724       143  OSM       C13S          -29.1079942346        9.3317359425       -4.5251318967  MEMB      143             0.0000000000
     16725       143  OSM       H13S          -29.1333622765       10.3877202097       -4.8606954443  MEMB      143             0.0000000000
     16726       143  OSM       H13T          -28.0486830566        9.1228075579       -4.3005077577  MEMB      143             0.0000000000
     16727       143  OSM       C14S          -29.8559876851        9.0658429346       -3.2618376544  MEMB      143             0.0000000000
     16728       143  OSM       H14S          -30.8594355271        9.5668803565       -3.3825207823  MEMB      143             0.0000000000
     16729       143  OSM       H14T          -29.2422664162        9.4450450730       -2.3998418078  MEMB      143             0.0000000000
     16730       143  OSM       C15S          -30.0704253386        7.6559887841       -2.8427656843  MEMB      143             0.0000000000
     16731       143  OSM       H15S          -29.2318117283        7.0742839610       -3.2333190782  MEMB      143             0.0000000000
     16732       143  OSM       H15T          -30.9253594254        7.3252713507       -3.4158861956  MEMB      143             0.0000000000
     16733       143  OSM       C16S          -30.2654587194        7.4666783426       -1.3441592285  MEMB      143             0.0000000000
     16734       143  OSM       H16S          -31.1736843712        7.9839206385       -0.9359155960  MEMB      143             0.0000000000
     16735       143  OSM       H16T          -29.3801284868        7.8489821759       -0.7774747476  MEMB      143             0.0000000000
     16736       143  OSM       C17S          -30.5296422055        6.0145449197       -1.0254629640  MEMB      143             0.0000000000
     16737       143  OSM       H17S          -31.5601235370        5.7195408757       -1.3197469075  MEMB      143             0.0000000000
     16738       143  OSM       H17T          -30.4575581196        6.1033962452        0.0324705104  MEMB      143             0.0000000000
     16739       143  OSM       C18S          -29.4755087194        4.9675132336       -1.3180342669  MEMB      143             0.0000000000
     16740       143  OSM       H18S          -28.4712465353        5.4465812052       -1.2853167965  MEMB      143             0.0000000000
     16741       143  OSM       H18T          -29.6856405254        4.5115984346       -2.3017200403  MEMB      143             0.0000000000
     16742       143  OSM       H18U          -29.5079255403        4.1700450560       -0.5380139851  MEMB      143             0.0000000000
     16743       143  OSM       C1F           -26.9406374718        5.1571061984      -14.7611816117  MEMB      143             0.0000000000
     16744       143  OSM       OF            -25.7687393895        5.5125115603      -14.7025548254  MEMB      143             0.0000000000
     16745       143  OSM       C2F           -27.5433301559        3.9444942879      -14.1571505645  MEMB      143             0.0000000000
     16746       143  OSM       H2F           -27.4718346556        3.0594126504      -14.8333048299  MEMB      143             0.0000000000
     16747       143  OSM       H2G           -28.5841957039        4.0735675432      -13.8483457765  MEMB      143             0.0000000000
     16748       143  OSM       C3F           -26.9394282557        3.7225536229      -12.8119625895  MEMB      143             0.0000000000
     16749       143  OSM       H3F           -25.8894141137        3.7469678260      -13.1368834932  MEMB      143             0.0000000000
     16750       143  OSM       H3G           -27.3343416734        2.7594129976      -12.4351771297  MEMB      143             0.0000000000
     16751       143  OSM       C4F           -27.0676443370        4.7456642318      -11.7117802265  MEMB      143             0.0000000000
     16752       143  OSM       H4F           -28.1628997925        4.7793181890      -11.5563384250  MEMB      143             0.0000000000
     16753       143  OSM       H4G           -26.4690198628        5.6133386186      -12.0222637490  MEMB      143             0.0000000000
     16754       143  OSM       C5F           -26.6477001767        4.4350241715      -10.3013218482  MEMB      143             0.0000000000
     16755       143  OSM       H5F           -25.7200625800        3.9159869174      -10.3241775602  MEMB      143             0.0000000000
     16756       143  OSM       H5G           -27.4691944017        3.8205397351       -9.8719923846  MEMB      143             0.0000000000
     16757       143  OSM       C6F           -25.8512623631        5.3693435110       -9.3878824353  MEMB      143             0.0000000000
     16758       143  OSM       H6F           -26.6237628548        6.0938805215       -9.1406121519  MEMB      143             0.0000000000
     16759       143  OSM       H6G           -24.9977251182        5.7533646529      -10.0101665750  MEMB      143             0.0000000000
     16760       143  OSM       C7F           -25.1458874687        4.8432172977       -8.0933897012  MEMB      143             0.0000000000
     16761       143  OSM       H7F           -24.6373893322        5.7139458824       -7.6261939000  MEMB      143             0.0000000000
     16762       143  OSM       H7G           -24.3272958743        4.1203868553       -8.3375694514  MEMB      143             0.0000000000
     16763       143  OSM       C8F           -26.0027551234        4.2226725442       -6.9689766296  MEMB      143             0.0000000000
     16764       143  OSM       H8F           -25.2879305800        3.6689171414       -6.3177051047  MEMB      143             0.0000000000
     16765       143  OSM       H8G           -26.7050979494        3.4859188181       -7.3317496249  MEMB      143             0.0000000000
     16766       143  OSM       C9F           -26.9499810756        4.9796739778       -6.1281607042  MEMB      143             0.0000000000
     16767       143  OSM       H9F           -28.0016022814        4.8953923479       -6.4508742871  MEMB      143             0.0000000000
     16768       143  OSM       C10F          -26.5880253164        5.6591301411       -5.0395600249  MEMB      143             0.0000000000
     16769       143  OSM       H10F          -27.3806364889        5.9885870708       -4.3613933318  MEMB      143             0.0000000000
     16770       143  OSM       C11F          -25.1738024381        5.7621081094       -4.5249100473  MEMB      143             0.0000000000
     16771       143  OSM       H11F          -24.9923008358        6.7563934426       -4.0602018780  MEMB      143             0.0000000000
     16772       143  OSM       H11G          -24.4829431364        5.6620165058       -5.3749090284  MEMB      143             0.0000000000
     16773       143  OSM       C12F          -24.8070413213        4.5987525305       -3.6023465279  MEMB      143             0.0000000000
     16774       143  OSM       H12F          -23.7360099989        4.6040355187       -3.2924191991  MEMB      143             0.0000000000
     16775       143  OSM       H12G          -24.9270189614        3.7013156170       -4.2556202241  MEMB      143             0.0000000000
     16776       143  OSM       C13F          -25.7425389184        4.6105089425       -2.3841909223  MEMB      143             0.0000000000
     16777       143  OSM       H13F          -26.6852009134        4.0654103993       -2.6688843734  MEMB      143             0.0000000000
     16778       143  OSM       H13G          -25.9711671156        5.6265805346       -2.0636398279  MEMB      143             0.0000000000
     16779       143  OSM       C14F          -25.1465465269        4.1480838997       -1.0524009165  MEMB      143             0.0000000000
     16780       143  OSM       H14F          -24.0715733973        4.1906897412       -0.8343779119  MEMB      143             0.0000000000
     16781       143  OSM       H14G          -25.2317707836        3.2970130483       -1.5328180794  MEMB      143             0.0000000000
     16782       143  OSM       C15F          -26.0255929384        3.4420542318       -0.0525558731  MEMB      143             0.0000000000
     16783       143  OSM       H15F          -26.8568291497        2.8187017453       -0.4802240661  MEMB      143             0.0000000000
     16784       143  OSM       H15G          -26.4609871966        4.3689550775        0.3298807002  MEMB      143             0.0000000000
     16785       143  OSM       C16F          -25.3053047827        2.5746334854        0.9915839534  MEMB      143             0.0000000000
     16786       143  OSM       H16F          -24.6318142644        3.1516354618        1.6237310650  MEMB      143             0.0000000000
     16787       143  OSM       H16G          -24.5802317447        1.8024232125        0.6478662563  MEMB      143             0.0000000000
     16788       143  OSM       C17F          -26.4459634718        1.9730055368        1.8318209168  MEMB      143             0.0000000000
     16789       143  OSM       H17F          -26.1601600935        1.4895498980        2.7841947759  MEMB      143             0.0000000000
     16790       143  OSM       H17G          -26.8941685576        1.4570323240        0.9733975889  MEMB      143             0.0000000000
     16791       143  OSM       C18F          -27.8136386188        2.4211848761        2.2562509319  MEMB      143             0.0000000000
     16792       143  OSM       H18F          -28.3746736779        2.9495442189        1.5012969128  MEMB      143             0.0000000000
     16793       143  OSM       H18G          -27.6702673964        3.2376417425        2.8770527333  MEMB      143             0.0000000000
     16794       143  OSM       H18H          -28.2985786127        1.7395472857        2.9964964638  MEMB      143             0.0000000000
     16795       144  CHL1      C3              4.7718299782      -28.4886138922      -17.4068758302  MEMB      144             0.0000000000
     16796       144  CHL1      H3              3.7077783103      -28.7379613403      -17.2502731239  MEMB      144             0.0000000000
     16797       144  CHL1      O3              5.1703200427      -28.8056989680      -18.7413262525  MEMB      144             0.0000000000
     16798       144  CHL1      H3'             4.9399239330      -28.0594423565      -19.3185057624  MEMB      144             0.0000000000
     16799       144  CHL1      C4              5.1230895192      -27.0084094364      -17.1079822171  MEMB      144             0.0000000000
     16800       144  CHL1      H4A             6.1727835515      -26.7933964509      -17.3979862951  MEMB      144             0.0000000000
     16801       144  CHL1      H4B             4.4666418641      -26.3942043771      -17.7558132896  MEMB      144             0.0000000000
     16802       144  CHL1      C5              5.0173262394      -26.6040351738      -15.6609068920  MEMB      144             0.0000000000
     16803       144  CHL1      C6              4.2789543327      -25.6030826793      -15.2442140921  MEMB      144             0.0000000000
     16804       144  CHL1      H6              3.6824069557      -24.9798217608      -15.9413754061  MEMB      144             0.0000000000
     16805       144  CHL1      C7              4.1452353034      -25.3105782355      -13.7923927753  MEMB      144             0.0000000000
     16806       144  CHL1      H7A             4.4574414127      -24.2796605980      -13.7976212041  MEMB      144             0.0000000000
     16807       144  CHL1      H7B             3.1113722708      -25.3402664258      -13.3812071346  MEMB      144             0.0000000000
     16808       144  CHL1      C8              5.1254304512      -25.9132155822      -12.7998068278  MEMB      144             0.0000000000
     16809       144  CHL1      H8              6.0303672771      -25.2687674823      -12.8184221870  MEMB      144             0.0000000000
     16810       144  CHL1      C14             4.5349373586      -26.0203543819      -11.4178972725  MEMB      144             0.0000000000
     16811       144  CHL1      H14             3.6357209295      -26.6775149735      -11.5326167160  MEMB      144             0.0000000000
     16812       144  CHL1      C15             3.9664868940      -24.8121624356      -10.7795892184  MEMB      144             0.0000000000
     16813       144  CHL1      H15A            4.5161683748      -23.8461946886      -10.8759265970  MEMB      144             0.0000000000
     16814       144  CHL1      H15B            2.9618392083      -24.7462553635      -11.2415213835  MEMB      144             0.0000000000
     16815       144  CHL1      C16             3.6714879307      -25.2143043729       -9.3546106930  MEMB      144             0.0000000000
     16816       144  CHL1      H16A            4.0488376642      -24.3973505564       -8.7078858009  MEMB      144             0.0000000000
     16817       144  CHL1      H16B            2.5603222462      -25.3164484847       -9.2513356272  MEMB      144             0.0000000000
     16818       144  CHL1      C17             4.3835542502      -26.5454055285       -9.1399454225  MEMB      144             0.0000000000
     16819       144  CHL1      H17             3.5805416831      -27.3112021855       -9.2767066554  MEMB      144             0.0000000000
     16820       144  CHL1      C13             5.3470857764      -26.6722391870      -10.3349692612  MEMB      144             0.0000000000
     16821       144  CHL1      C18             6.6036058963      -25.8313687690      -10.0728793200  MEMB      144             0.0000000000
     16822       144  CHL1      H18A            7.2768606891      -26.4020776423       -9.4086440475  MEMB      144             0.0000000000
     16823       144  CHL1      H18B            7.1627978107      -25.6324337331      -11.0095309063  MEMB      144             0.0000000000
     16824       144  CHL1      H18C            6.3420037476      -24.8792584849       -9.5743446266  MEMB      144             0.0000000000
     16825       144  CHL1      C12             5.7021802010      -28.0731074594      -10.8032939215  MEMB      144             0.0000000000
     16826       144  CHL1      H12A            6.3906301991      -28.5616088813      -10.0907515079  MEMB      144             0.0000000000
     16827       144  CHL1      H12B            4.7680069378      -28.6698966350      -10.9012595976  MEMB      144             0.0000000000
     16828       144  CHL1      C11             6.3520100060      -28.0029528620      -12.1848334076  MEMB      144             0.0000000000
     16829       144  CHL1      H11A            7.3124012717      -27.4502446048      -12.1454019395  MEMB      144             0.0000000000
     16830       144  CHL1      H11B            6.5942105580      -29.0406169892      -12.4623679022  MEMB      144             0.0000000000
     16831       144  CHL1      C9              5.4001820736      -27.3194265050      -13.1964830360  MEMB      144             0.0000000000
     16832       144  CHL1      H9              4.4085386685      -27.8229217421      -13.0955820345  MEMB      144             0.0000000000
     16833       144  CHL1      C10             5.7429272970      -27.4857991016      -14.6657745823  MEMB      144             0.0000000000
     16834       144  CHL1      C19             7.2216268070      -27.1596865713      -14.7894197900  MEMB      144             0.0000000000
     16835       144  CHL1      H19A            7.5839318740      -26.2847817459      -14.2397969604  MEMB      144             0.0000000000
     16836       144  CHL1      H19B            7.7909558824      -28.0012688456      -14.3597681232  MEMB      144             0.0000000000
     16837       144  CHL1      H19C            7.5004747975      -27.0052187674      -15.8500051109  MEMB      144             0.0000000000
     16838       144  CHL1      C1              5.3880284160      -28.9464249101      -15.0088038860  MEMB      144             0.0000000000
     16839       144  CHL1      H1A             5.8600938161      -29.5956116625      -14.2673015988  MEMB      144             0.0000000000
     16840       144  CHL1      H1B             4.3259284581      -29.1548626240      -14.8122140995  MEMB      144             0.0000000000
     16841       144  CHL1      C2              5.5893062636      -29.3362588742      -16.4622681908  MEMB      144             0.0000000000
     16842       144  CHL1      H2A             5.5675997046      -30.4386537302      -16.5979482192  MEMB      144             0.0000000000
     16843       144  CHL1      H2B             6.5004735821      -28.8902539432      -16.8635464063  MEMB      144             0.0000000000
     16844       144  CHL1      C20             4.9139043634      -26.6148540145       -7.7154642436  MEMB      144             0.0000000000
     16845       144  CHL1      H20             5.6174527662      -25.7756174359       -7.4931166989  MEMB      144             0.0000000000
     16846       144  CHL1      C21             5.6364532635      -27.9335974459       -7.4501383878  MEMB      144             0.0000000000
     16847       144  CHL1      H21A            4.9768902157      -28.7813315887       -7.7214845209  MEMB      144             0.0000000000
     16848       144  CHL1      H21B            5.8869588015      -28.0088092558       -6.3749520564  MEMB      144             0.0000000000
     16849       144  CHL1      H21C            6.5869147578      -27.9888924327       -8.0103837008  MEMB      144             0.0000000000
     16850       144  CHL1      C22             3.7554450223      -26.4792930399       -6.7274723312  MEMB      144             0.0000000000
     16851       144  CHL1      H22A            3.2796732201      -25.4902165175       -6.8639056527  MEMB      144             0.0000000000
     16852       144  CHL1      H22B            2.9876603890      -27.2564797841       -6.9273052798  MEMB      144             0.0000000000
     16853       144  CHL1      C23             4.1967456458      -26.6003657828       -5.2767767231  MEMB      144             0.0000000000
     16854       144  CHL1      H23A            4.4436016097      -27.6461773346       -5.0258838399  MEMB      144             0.0000000000
     16855       144  CHL1      H23B            5.0469774151      -25.9008979350       -5.0705685499  MEMB      144             0.0000000000
     16856       144  CHL1      C24             3.0336197417      -26.2723345013       -4.4122445312  MEMB      144             0.0000000000
     16857       144  CHL1      H24A            2.7710736030      -25.2887487314       -4.8530632010  MEMB      144             0.0000000000
     16858       144  CHL1      H24B            2.0877973003      -26.7711434134       -4.6237956589  MEMB      144             0.0000000000
     16859       144  CHL1      C25             3.2900768707      -26.3444842701       -2.8843978617  MEMB      144             0.0000000000
     16860       144  CHL1      H25             4.1173897954      -25.6215100489       -2.6031428926  MEMB      144             0.0000000000
     16861       144  CHL1      C26             1.8990383162      -26.0502965560       -2.2793084070  MEMB      144             0.0000000000
     16862       144  CHL1      H26A            1.5387304781      -25.0620340598       -2.6741288934  MEMB      144             0.0000000000
     16863       144  CHL1      H26B            1.2320737594      -26.8738782918       -2.3238037968  MEMB      144             0.0000000000
     16864       144  CHL1      H26C            1.6539193945      -25.8098326486       -1.2282966693  MEMB      144             0.0000000000
     16865       144  CHL1      C27             3.9456039035      -27.5164426753       -2.2963045986  MEMB      144             0.0000000000
     16866       144  CHL1      H27A            4.0606938446      -27.3518913593       -1.2013120236  MEMB      144             0.0000000000
     16867       144  CHL1      H27B            3.2014511325      -28.2824060809       -2.5439496606  MEMB      144             0.0000000000
     16868       144  CHL1      H27C            4.9575390600      -27.6069581115       -2.7522503664  MEMB      144             0.0000000000
     16869       145  CHL1      C3              8.4307931071       28.6505950054      -17.3321660952  MEMB      145             0.0000000000
     16870       145  CHL1      H3              9.1062461317       29.5351400709      -17.3289125259  MEMB      145             0.0000000000
     16871       145  CHL1      O3              8.2640891269       28.2782412666      -18.6927670667  MEMB      145             0.0000000000
     16872       145  CHL1      H3'             9.0976466250       27.8858770063      -18.9707537236  MEMB      145             0.0000000000
     16873       145  CHL1      C4              9.0689120789       27.4592393247      -16.6157074716  MEMB      145             0.0000000000
     16874       145  CHL1      H4A             8.4487626062       26.5500138128      -16.8037230046  MEMB      145             0.0000000000
     16875       145  CHL1      H4B            10.0389978265       27.2369746266      -17.1107696965  MEMB      145             0.0000000000
     16876       145  CHL1      C5              9.2043306643       27.7421561351      -15.1270335256  MEMB      145             0.0000000000
     16877       145  CHL1      C6             10.3947308163       27.7650355347      -14.4976254834  MEMB      145             0.0000000000
     16878       145  CHL1      H6             11.2792988470       27.4256289939      -15.0577878252  MEMB      145             0.0000000000
     16879       145  CHL1      C7             10.5071959716       27.6783135303      -12.9838071243  MEMB      145             0.0000000000
     16880       145  CHL1      H7A            11.2092266203       26.8564767922      -12.6918900480  MEMB      145             0.0000000000
     16881       145  CHL1      H7B            10.9080912535       28.6387996288      -12.6506195122  MEMB      145             0.0000000000
     16882       145  CHL1      C8              9.1588678376       27.3670715592      -12.2546707773  MEMB      145             0.0000000000
     16883       145  CHL1      H8              8.9084621032       26.3139660998      -12.5067653789  MEMB      145             0.0000000000
     16884       145  CHL1      C14             9.1809056466       27.4510733546      -10.7152539231  MEMB      145             0.0000000000
     16885       145  CHL1      H14             9.6697324959       28.4192870846      -10.4271039542  MEMB      145             0.0000000000
     16886       145  CHL1      C15             9.8056632095       26.2689928751      -10.0020599496  MEMB      145             0.0000000000
     16887       145  CHL1      H15A            9.8247992726       25.3221438292      -10.5450959317  MEMB      145             0.0000000000
     16888       145  CHL1      H15B           10.7721189889       26.3940290026      -10.0526400617  MEMB      145             0.0000000000
     16889       145  CHL1      C16             9.4274533387       26.2736628961       -8.5273956130  MEMB      145             0.0000000000
     16890       145  CHL1      H16A            9.1467491765       25.2201019231       -8.3854060801  MEMB      145             0.0000000000
     16891       145  CHL1      H16B           10.1918894258       26.4034929829       -7.7350470691  MEMB      145             0.0000000000
     16892       145  CHL1      C17             8.2906298355       27.3293493102       -8.5028200259  MEMB      145             0.0000000000
     16893       145  CHL1      H17             8.7552340285       28.3026207357       -8.2004459449  MEMB      145             0.0000000000
     16894       145  CHL1      C13             7.8604312560       27.3945797288      -10.0008364516  MEMB      145             0.0000000000
     16895       145  CHL1      C18             7.2026277578       26.0349083977      -10.4435971366  MEMB      145             0.0000000000
     16896       145  CHL1      H18A            7.6608357401       25.1317797552       -9.9902868176  MEMB      145             0.0000000000
     16897       145  CHL1      H18B            6.1164968123       26.0188602380      -10.2798016420  MEMB      145             0.0000000000
     16898       145  CHL1      H18C            7.3036103179       25.8803347477      -11.5301663173  MEMB      145             0.0000000000
     16899       145  CHL1      C12             7.1217426675       28.6320775860      -10.4718025704  MEMB      145             0.0000000000
     16900       145  CHL1      H12A            6.1631857528       28.7185998994       -9.9414367164  MEMB      145             0.0000000000
     16901       145  CHL1      H12B            7.7265265892       29.5410507406      -10.2443542573  MEMB      145             0.0000000000
     16902       145  CHL1      C11             6.8656721838       28.5136885115      -11.9857390037  MEMB      145             0.0000000000
     16903       145  CHL1      H11A            6.1332586239       27.6945988574      -12.1198897318  MEMB      145             0.0000000000
     16904       145  CHL1      H11B            6.4077005604       29.4541165937      -12.3383823959  MEMB      145             0.0000000000
     16905       145  CHL1      C9              8.1309135374       28.3038048783      -12.8638594342  MEMB      145             0.0000000000
     16906       145  CHL1      H9              8.6250915401       29.3068796344      -12.8711191398  MEMB      145             0.0000000000
     16907       145  CHL1      C10             7.8835854973       27.9785823556      -14.3707591637  MEMB      145             0.0000000000
     16908       145  CHL1      C19             6.8673196471       26.8098984547      -14.4458957824  MEMB      145             0.0000000000
     16909       145  CHL1      H19A            5.8943984778       27.2090139045      -14.0997977214  MEMB      145             0.0000000000
     16910       145  CHL1      H19B            6.7155156578       26.4810290111      -15.4917890867  MEMB      145             0.0000000000
     16911       145  CHL1      H19C            7.1373538621       25.9383222443      -13.8142124538  MEMB      145             0.0000000000
     16912       145  CHL1      C1              7.2657030728       29.2072380424      -15.0974482034  MEMB      145             0.0000000000
     16913       145  CHL1      H1A             6.2692255525       29.3894368786      -14.6487487992  MEMB      145             0.0000000000
     16914       145  CHL1      H1B             7.8834910114       30.0990547696      -14.8581517257  MEMB      145             0.0000000000
     16915       145  CHL1      C2              7.1111569341       29.0762728781      -16.6420304930  MEMB      145             0.0000000000
     16916       145  CHL1      H2A             6.7820942029       30.0481160139      -17.0700584301  MEMB      145             0.0000000000
     16917       145  CHL1      H2B             6.2957412410       28.3612927730      -16.8764517030  MEMB      145             0.0000000000
     16918       145  CHL1      C20             7.2282357887       27.0083537630       -7.4606660415  MEMB      145             0.0000000000
     16919       145  CHL1      H20             6.6002106712       26.2064888258       -7.9169845603  MEMB      145             0.0000000000
     16920       145  CHL1      C21             6.2984845480       28.2147199752       -7.1622058401  MEMB      145             0.0000000000
     16921       145  CHL1      H21A            5.6911688780       28.5124194293       -8.0345035079  MEMB      145             0.0000000000
     16922       145  CHL1      H21B            6.8707142443       29.0964378136       -6.8090953231  MEMB      145             0.0000000000
     16923       145  CHL1      H21C            5.5554229586       27.9444342405       -6.3855573075  MEMB      145             0.0000000000
     16924       145  CHL1      C22             7.9617924242       26.5133808316       -6.1706342839  MEMB      145             0.0000000000
     16925       145  CHL1      H22A            8.5258978505       25.5898875815       -6.4131912290  MEMB      145             0.0000000000
     16926       145  CHL1      H22B            8.6315123924       27.2631934212       -5.7392106112  MEMB      145             0.0000000000
     16927       145  CHL1      C23             7.1814983331       26.2849225053       -4.8956741621  MEMB      145             0.0000000000
     16928       145  CHL1      H23A            6.3814453720       26.9868457204       -4.6137624895  MEMB      145             0.0000000000
     16929       145  CHL1      H23B            6.5444022317       25.6631964696       -5.3168523360  MEMB      145             0.0000000000
     16930       145  CHL1      C24             7.8279146066       25.4086673845       -3.7986276328  MEMB      145             0.0000000000
     16931       145  CHL1      H24A            8.8068225430       25.8496385736       -3.6837700075  MEMB      145             0.0000000000
     16932       145  CHL1      H24B            7.1157031364       25.4773042347       -2.9282743993  MEMB      145             0.0000000000
     16933       145  CHL1      C25             8.2922513142       23.9208158177       -3.9574163992  MEMB      145             0.0000000000
     16934       145  CHL1      H25             7.3651191842       23.4763103640       -3.8560153940  MEMB      145             0.0000000000
     16935       145  CHL1      C26             8.7385644180       23.3095433318       -5.3055400313  MEMB      145             0.0000000000
     16936       145  CHL1      H26A            9.6556966846       23.8599496328       -5.5230076891  MEMB      145             0.0000000000
     16937       145  CHL1      H26B            8.8967986543       22.2079625445       -5.2021062550  MEMB      145             0.0000000000
     16938       145  CHL1      H26C            8.0328427529       23.4433916909       -6.1633425996  MEMB      145             0.0000000000
     16939       145  CHL1      C27             8.8075447276       23.2177374514       -2.7026780846  MEMB      145             0.0000000000
     16940       145  CHL1      H27A            8.0480644579       23.3044545440       -1.8820194243  MEMB      145             0.0000000000
     16941       145  CHL1      H27B            8.9263960455       22.1240009352       -2.9059761809  MEMB      145             0.0000000000
     16942       145  CHL1      H27C            9.7405075906       23.7032298778       -2.4466198482  MEMB      145             0.0000000000
     16943       146  CHL1      C3             28.4584604563      -10.2217708504      -17.4335690055  MEMB      146             0.0000000000
     16944       146  CHL1      H3             28.5064475572      -11.3285299581      -17.6303409643  MEMB      146             0.0000000000
     16945       146  CHL1      O3             28.0887904212       -9.4735019547      -18.5804874248  MEMB      146             0.0000000000
     16946       146  CHL1      H3'            27.2079283110       -9.7638852018      -18.8942402644  MEMB      146             0.0000000000
     16947       146  CHL1      C4             27.4474142984       -9.9329590931      -16.3130904801  MEMB      146             0.0000000000
     16948       146  CHL1      H4A            27.3269725501       -8.8437199341      -16.1713513783  MEMB      146             0.0000000000
     16949       146  CHL1      H4B            26.4472007157      -10.3601222005      -16.5755647034  MEMB      146             0.0000000000
     16950       146  CHL1      C5             27.9657237855      -10.5454738687      -15.0566627192  MEMB      146             0.0000000000
     16951       146  CHL1      C6             27.2144478778      -11.3966102196      -14.4033989792  MEMB      146             0.0000000000
     16952       146  CHL1      H6             26.1691200848      -11.5486379872      -14.6935635721  MEMB      146             0.0000000000
     16953       146  CHL1      C7             27.7856159667      -12.0500922022      -13.2178737112  MEMB      146             0.0000000000
     16954       146  CHL1      H7A            27.0105472041      -12.2376189737      -12.5104239045  MEMB      146             0.0000000000
     16955       146  CHL1      H7B            28.2028016142      -13.0169817731      -13.5776004449  MEMB      146             0.0000000000
     16956       146  CHL1      C8             28.8058356051      -11.1316809987      -12.5014597897  MEMB      146             0.0000000000
     16957       146  CHL1      H8             28.2557088278      -10.2517166662      -12.1300118791  MEMB      146             0.0000000000
     16958       146  CHL1      C14            29.4544698240      -11.6750589275      -11.2939359137  MEMB      146             0.0000000000
     16959       146  CHL1      H14            29.7739929698      -12.5437784659      -11.7695684058  MEMB      146             0.0000000000
     16960       146  CHL1      C15            28.6959522293      -11.8045650593      -10.2046517333  MEMB      146             0.0000000000
     16961       146  CHL1      H15A           27.8629160479      -11.2127445144       -9.7923130279  MEMB      146             0.0000000000
     16962       146  CHL1      H15B           27.8610255353      -12.4931514087      -10.6224172643  MEMB      146             0.0000000000
     16963       146  CHL1      C16            29.9926943274      -12.1807616827       -8.9790333696  MEMB      146             0.0000000000
     16964       146  CHL1      H16A           29.6618082059      -11.7972549376       -8.0256329510  MEMB      146             0.0000000000
     16965       146  CHL1      H16B           30.3126453472      -13.3398663318       -8.5729530425  MEMB      146             0.0000000000
     16966       146  CHL1      C17            31.2516607023      -12.2792139365       -9.4083311480  MEMB      146             0.0000000000
     16967       146  CHL1      H17            31.5181912322      -13.3070358686       -9.8124807202  MEMB      146             0.0000000000
     16968       146  CHL1      C13            30.7263790088      -11.3457117512      -10.5475322775  MEMB      146             0.0000000000
     16969       146  CHL1      C18            30.2885018818      -10.0176364852       -9.9480924089  MEMB      146             0.0000000000
     16970       146  CHL1      H18A           29.3333894220       -9.9559607693       -9.3788708846  MEMB      146             0.0000000000
     16971       146  CHL1      H18B           30.9924432449       -9.7177778371       -9.2008464190  MEMB      146             0.0000000000
     16972       146  CHL1      H18C           30.1767193826       -9.3419962706      -10.7855120185  MEMB      146             0.0000000000
     16973       146  CHL1      C12            31.5995353081      -11.5116190707      -11.6821162068  MEMB      146             0.0000000000
     16974       146  CHL1      H12A           32.5342048287      -11.3630192279      -11.3208205060  MEMB      146             0.0000000000
     16975       146  CHL1      H12B           31.6699943331      -12.5799285950      -11.9898561730  MEMB      146             0.0000000000
     16976       146  CHL1      C11            31.2471566990      -10.6099191741      -12.8171675070  MEMB      146             0.0000000000
     16977       146  CHL1      H11A           31.3092483668       -9.5713062922      -12.4451687082  MEMB      146             0.0000000000
     16978       146  CHL1      H11B           32.0568842341      -10.7951233518      -13.5270441487  MEMB      146             0.0000000000
     16979       146  CHL1      C9             29.9121178551      -11.0283842082      -13.4653812354  MEMB      146             0.0000000000
     16980       146  CHL1      H9             30.1133377875      -12.0830191706      -13.8183318323  MEMB      146             0.0000000000
     16981       146  CHL1      C10            29.4060854867      -10.2358271675      -14.6359826167  MEMB      146             0.0000000000
     16982       146  CHL1      C19            29.4746653297       -8.7996306445      -14.1532603371  MEMB      146             0.0000000000
     16983       146  CHL1      H19A           30.5177298292       -8.5388942473      -13.9083830365  MEMB      146             0.0000000000
     16984       146  CHL1      H19B           29.1371831960       -8.0675837103      -14.9012189668  MEMB      146             0.0000000000
     16985       146  CHL1      H19C           28.8460804000       -8.7265563257      -13.2494598095  MEMB      146             0.0000000000
     16986       146  CHL1      C1             30.3304728600      -10.4856182666      -15.7995986965  MEMB      146             0.0000000000
     16987       146  CHL1      H1A            31.3672695822      -10.2758708665      -15.5123764738  MEMB      146             0.0000000000
     16988       146  CHL1      H1B            30.3173264151      -11.5478917625      -15.9989548574  MEMB      146             0.0000000000
     16989       146  CHL1      C2             29.8861466008       -9.7880640516      -17.0699216851  MEMB      146             0.0000000000
     16990       146  CHL1      H2A            30.5634682606      -10.0982086409      -17.8876755452  MEMB      146             0.0000000000
     16991       146  CHL1      H2B            29.9860668262       -8.6925588070      -16.9648372122  MEMB      146             0.0000000000
     16992       146  CHL1      C20            31.7391088478      -12.0804355026       -7.8934491739  MEMB      146             0.0000000000
     16993       146  CHL1      H20            31.2192996751      -11.3101445843       -7.2366067900  MEMB      146             0.0000000000
     16994       146  CHL1      C21            32.7467013919      -11.2406245690       -8.0923250686  MEMB      146             0.0000000000
     16995       146  CHL1      H21A           32.5545387676      -10.2550697888       -8.5054573933  MEMB      146             0.0000000000
     16996       146  CHL1      H21B           33.1655370653      -11.7755733999       -8.9271137690  MEMB      146             0.0000000000
     16997       146  CHL1      H21C           33.2869267024      -11.3205147391       -7.1847301450  MEMB      146             0.0000000000
     16998       146  CHL1      C22            31.9642803287      -13.3561732465       -6.9800094988  MEMB      146             0.0000000000
     16999       146  CHL1      H22A           31.5551093780      -14.3365732553       -7.3680552066  MEMB      146             0.0000000000
     17000       146  CHL1      H22B           32.8911595644      -13.8848337803       -6.8503596574  MEMB      146             0.0000000000
     17001       146  CHL1      C23            31.6055978178      -12.9132556530       -5.5806270629  MEMB      146             0.0000000000
     17002       146  CHL1      H23A           32.2291163759      -12.0582252151       -5.3666011952  MEMB      146             0.0000000000
     17003       146  CHL1      H23B           30.5762175788      -12.5203933675       -5.5162541444  MEMB      146             0.0000000000
     17004       146  CHL1      C24            31.7611425914      -14.0944443748       -4.6815818564  MEMB      146             0.0000000000
     17005       146  CHL1      H24A           31.2392579075      -14.9904625529       -5.0949026800  MEMB      146             0.0000000000
     17006       146  CHL1      H24B           32.8545986044      -14.2582768005       -4.7209145565  MEMB      146             0.0000000000
     17007       146  CHL1      C25            31.3467070704      -13.9216969914       -3.2413180132  MEMB      146             0.0000000000
     17008       146  CHL1      H25            30.2824647784      -13.8125510027       -2.9441217237  MEMB      146             0.0000000000
     17009       146  CHL1      C26            32.0311895781      -14.8742390187       -2.3244655733  MEMB      146             0.0000000000
     17010       146  CHL1      H26A           31.7942387063      -14.8079301913       -1.2498984016  MEMB      146             0.0000000000
     17011       146  CHL1      H26B           31.5298489162      -15.7985287551       -2.6610351956  MEMB      146             0.0000000000
     17012       146  CHL1      H26C           33.1174944777      -14.9212933473       -2.4977898279  MEMB      146             0.0000000000
     17013       146  CHL1      C27            31.5248917092      -12.6880830736       -2.8632595606  MEMB      146             0.0000000000
     17014       146  CHL1      H27A           31.4850576748      -11.7425609843       -3.3991532107  MEMB      146             0.0000000000
     17015       146  CHL1      H27B           31.2762841674      -12.7050874566       -1.7615532256  MEMB      146             0.0000000000
     17016       146  CHL1      H27C           32.5859681306      -12.9000661641       -3.0430551023  MEMB      146             0.0000000000
     17017       147  CHL1      C3            -18.5019208989      -23.4668554960      -17.3691624737  MEMB      147             0.0000000000
     17018       147  CHL1      H3            -17.5848453008      -24.0648938767      -17.1588162896  MEMB      147             0.0000000000
     17019       147  CHL1      O3            -18.9419211631      -23.7790017150      -18.6740582079  MEMB      147             0.0000000000
     17020       147  CHL1      H3'           -18.2350105035      -23.4589601328      -19.2503368162  MEMB      147             0.0000000000
     17021       147  CHL1      C4            -19.6031415117      -23.8303135481      -16.3583778763  MEMB      147             0.0000000000
     17022       147  CHL1      H4A           -20.5308831184      -23.2911564614      -16.6340504478  MEMB      147             0.0000000000
     17023       147  CHL1      H4B           -19.8207918803      -24.9123754862      -16.4317519118  MEMB      147             0.0000000000
     17024       147  CHL1      C5            -19.2124991846      -23.4768256312      -14.9531364417  MEMB      147             0.0000000000
     17025       147  CHL1      C6            -19.1550883044      -24.4036668467      -13.9791875819  MEMB      147             0.0000000000
     17026       147  CHL1      H6            -19.4743877290      -25.4313973465      -14.1864429845  MEMB      147             0.0000000000
     17027       147  CHL1      C7            -18.7626073950      -24.1032048859      -12.5664429871  MEMB      147             0.0000000000
     17028       147  CHL1      H7A           -19.3935379528      -24.6374601235      -11.8316052412  MEMB      147             0.0000000000
     17029       147  CHL1      H7B           -17.6912919984      -24.3798842060      -12.3928886654  MEMB      147             0.0000000000
     17030       147  CHL1      C8            -18.9372112685      -22.5961523067      -12.2994985822  MEMB      147             0.0000000000
     17031       147  CHL1      H8            -20.0054985085      -22.3413870681      -12.3618771511  MEMB      147             0.0000000000
     17032       147  CHL1      C14           -18.3281460807      -22.3403136337      -10.9226744881  MEMB      147             0.0000000000
     17033       147  CHL1      H14           -17.2741674302      -22.7005186463      -10.9282983257  MEMB      147             0.0000000000
     17034       147  CHL1      C15           -19.0986228822      -22.9254728328       -9.7477194351  MEMB      147             0.0000000000
     17035       147  CHL1      H15A          -20.1827263890      -22.7169753227       -9.8450367662  MEMB      147             0.0000000000
     17036       147  CHL1      H15B          -18.9428142484      -24.0068262421       -9.6793872115  MEMB      147             0.0000000000
     17037       147  CHL1      C16           -18.6249909712      -22.1403228457       -8.5312637516  MEMB      147             0.0000000000
     17038       147  CHL1      H16A          -19.5295973156      -21.7849940379       -7.9862437771  MEMB      147             0.0000000000
     17039       147  CHL1      H16B          -17.9855530022      -22.7176245984       -7.8541405482  MEMB      147             0.0000000000
     17040       147  CHL1      C17           -17.8596011615      -20.8884037292       -9.0268733203  MEMB      147             0.0000000000
     17041       147  CHL1      H17           -16.8293051437      -21.2357925833       -9.0521999282  MEMB      147             0.0000000000
     17042       147  CHL1      C13           -18.1231786172      -20.9305387142      -10.5662075830  MEMB      147             0.0000000000
     17043       147  CHL1      C18           -19.3885370705      -20.3776643849      -10.4170220365  MEMB      147             0.0000000000
     17044       147  CHL1      H18A          -19.2191410728      -19.3193221651      -10.4422746058  MEMB      147             0.0000000000
     17045       147  CHL1      H18B          -19.9166662271      -20.7518248957      -11.2816427126  MEMB      147             0.0000000000
     17046       147  CHL1      H18C          -20.0661012851      -20.5438141425       -9.5614489618  MEMB      147             0.0000000000
     17047       147  CHL1      C12           -17.2832691855      -20.3755696080      -11.7719542933  MEMB      147             0.0000000000
     17048       147  CHL1      H12A          -17.3141831055      -19.2855907751      -11.9883685091  MEMB      147             0.0000000000
     17049       147  CHL1      H12B          -16.2458813484      -20.6867576180      -11.5813293773  MEMB      147             0.0000000000
     17050       147  CHL1      C11           -17.8183806145      -20.4125246899      -13.1529453383  MEMB      147             0.0000000000
     17051       147  CHL1      H11A          -18.6690340077      -19.7132908260      -13.2204182803  MEMB      147             0.0000000000
     17052       147  CHL1      H11B          -17.0130520065      -19.9747712138      -13.8082558064  MEMB      147             0.0000000000
     17053       147  CHL1      C9            -18.2442654057      -21.8167324340      -13.3992727427  MEMB      147             0.0000000000
     17054       147  CHL1      H9            -17.3719145702      -22.3540615649      -13.1507590152  MEMB      147             0.0000000000
     17055       147  CHL1      C10           -18.7946254969      -22.0191314530      -14.7913937284  MEMB      147             0.0000000000
     17056       147  CHL1      C19           -19.9443253417      -21.0204580926      -14.8835265153  MEMB      147             0.0000000000
     17057       147  CHL1      H19A          -19.5757980887      -19.9708307939      -14.9227235160  MEMB      147             0.0000000000
     17058       147  CHL1      H19B          -20.5440279583      -21.1821975383      -15.7876372961  MEMB      147             0.0000000000
     17059       147  CHL1      H19C          -20.5461406070      -21.1329389395      -13.9798839810  MEMB      147             0.0000000000
     17060       147  CHL1      C1            -17.8376318060      -21.5768903437      -15.8993373539  MEMB      147             0.0000000000
     17061       147  CHL1      H1A           -17.5897861071      -20.4997315679      -15.7714645683  MEMB      147             0.0000000000
     17062       147  CHL1      H1B           -16.9403704376      -22.1636575194      -15.8316937050  MEMB      147             0.0000000000
     17063       147  CHL1      C2            -18.2173214365      -21.9623860765      -17.3149232273  MEMB      147             0.0000000000
     17064       147  CHL1      H2A           -17.4199376909      -21.6812808113      -18.0363460966  MEMB      147             0.0000000000
     17065       147  CHL1      H2B           -19.1399272114      -21.4106108446      -17.5577906154  MEMB      147             0.0000000000
     17066       147  CHL1      C20           -18.3090715905      -19.7351843093       -7.9426319304  MEMB      147             0.0000000000
     17067       147  CHL1      H20           -19.3996580368      -19.6109418178       -7.9840573814  MEMB      147             0.0000000000
     17068       147  CHL1      C21           -17.9619654874      -18.2936394182       -8.1134911050  MEMB      147             0.0000000000
     17069       147  CHL1      H21A          -17.6005835605      -17.4169222064       -7.5559574889  MEMB      147             0.0000000000
     17070       147  CHL1      H21B          -18.4046071526      -18.1548832157       -9.0891997526  MEMB      147             0.0000000000
     17071       147  CHL1      H21C          -16.8893339616      -18.1199026104       -8.1232685362  MEMB      147             0.0000000000
     17072       147  CHL1      C22           -17.8376577531      -19.9348140722       -6.5116600612  MEMB      147             0.0000000000
     17073       147  CHL1      H22A          -17.8663927816      -21.0064725811       -6.3506216084  MEMB      147             0.0000000000
     17074       147  CHL1      H22B          -16.8151034535      -19.6665893416       -6.1752903311  MEMB      147             0.0000000000
     17075       147  CHL1      C23           -18.4148003544      -18.8424286112       -5.6681694394  MEMB      147             0.0000000000
     17076       147  CHL1      H23A          -17.8919128850      -17.8546161219       -5.8033837785  MEMB      147             0.0000000000
     17077       147  CHL1      H23B          -19.4578627674      -18.7860643093       -6.0096814127  MEMB      147             0.0000000000
     17078       147  CHL1      C24           -18.2235997302      -19.2098950381       -4.2407840588  MEMB      147             0.0000000000
     17079       147  CHL1      H24A          -17.1511011396      -19.3344279514       -4.0555357104  MEMB      147             0.0000000000
     17080       147  CHL1      H24B          -18.6008184816      -18.3766491963       -3.6241068196  MEMB      147             0.0000000000
     17081       147  CHL1      C25           -18.9072695746      -20.5288073283       -3.9252915741  MEMB      147             0.0000000000
     17082       147  CHL1      H25           -18.4325676254      -21.3491598479       -4.5227894956  MEMB      147             0.0000000000
     17083       147  CHL1      C26           -18.7338323671      -20.8917070552       -2.4906700186  MEMB      147             0.0000000000
     17084       147  CHL1      H26A          -19.1476149623      -20.1495318090       -1.7953886297  MEMB      147             0.0000000000
     17085       147  CHL1      H26B          -19.0183659992      -21.9345918075       -2.2412793646  MEMB      147             0.0000000000
     17086       147  CHL1      H26C          -17.6776418552      -20.7539827591       -2.4229893433  MEMB      147             0.0000000000
     17087       147  CHL1      C27           -20.3793781913      -20.3732627383       -4.1583597724  MEMB      147             0.0000000000
     17088       147  CHL1      H27A          -20.9233071300      -21.1792164044       -3.6398231272  MEMB      147             0.0000000000
     17089       147  CHL1      H27B          -20.7140263493      -19.3880953809       -3.7572067197  MEMB      147             0.0000000000
     17090       147  CHL1      H27C          -20.5710138294      -20.4338282521       -5.2415478071  MEMB      147             0.0000000000
     17091       148  SAPE      N              -0.5569691304       28.7359610168      -22.3104207356  MEMB      148             0.0000000000
     17092       148  SAPE      HN1            -1.1825878058       28.0213981509      -22.7171156418  MEMB      148             0.0000000000
     17093       148  SAPE      HN2            -1.0792039530       29.4931561393      -21.8349800078  MEMB      148             0.0000000000
     17094       148  SAPE      HN3             0.0223113151       29.1750072752      -23.0559039159  MEMB      148             0.0000000000
     17095       148  SAPE      C12             0.3139980299       28.0637951100      -21.2982001301  MEMB      148             0.0000000000
     17096       148  SAPE      H12A            1.0009951558       27.3715943012      -21.8219320844  MEMB      148             0.0000000000
     17097       148  SAPE      H12B           -0.3303377280       27.4909485348      -20.5937132053  MEMB      148             0.0000000000
     17098       148  SAPE      C11             1.1442109617       29.0955551648      -20.5614869125  MEMB      148             0.0000000000
     17099       148  SAPE      H11A            1.9239152494       29.5407782071      -21.2185191714  MEMB      148             0.0000000000
     17100       148  SAPE      H11B            1.6941392465       28.5151478410      -19.8298350159  MEMB      148             0.0000000000
     17101       148  SAPE      P               1.1530758426       31.2566136121      -19.2149376974  MEMB      148             0.0000000000
     17102       148  SAPE      O13             2.0554516209       30.7758425272      -18.1635690722  MEMB      148             0.0000000000
     17103       148  SAPE      O14             1.5775202588       32.1634473616      -20.3028673263  MEMB      148             0.0000000000
     17104       148  SAPE      O12             0.3290621805       30.0640954552      -19.9096824517  MEMB      148             0.0000000000
     17105       148  SAPE      O11             0.0120491384       31.8702072922      -18.5200620926  MEMB      148             0.0000000000
     17106       148  SAPE      C1             -0.9901912936       32.3545957095      -19.2979957768  MEMB      148             0.0000000000
     17107       148  SAPE      HA             -0.7270405248       33.4272473951      -19.3630076534  MEMB      148             0.0000000000
     17108       148  SAPE      HB             -1.2223417872       32.0821732941      -20.3722204503  MEMB      148             0.0000000000
     17109       148  SAPE      C2             -2.1328465103       32.0215559586      -18.4603725756  MEMB      148             0.0000000000
     17110       148  SAPE      HS             -2.9982929955       32.5702193099      -19.0248127814  MEMB      148             0.0000000000
     17111       148  SAPE      O21            -1.8181332608       32.1716826325      -16.8599418099  MEMB      148             0.0000000000
     17112       148  SAPE      C21            -1.4932161350       33.3144210497      -15.8484798707  MEMB      148             0.0000000000
     17113       148  SAPE      O22            -1.5292431278       34.5055177405      -15.9036901533  MEMB      148             0.0000000000
     17114       148  SAPE      C22            -1.5557483543       33.0741126273      -14.4564060772  MEMB      148             0.0000000000
     17115       148  SAPE      H2R            -2.5437233618       33.3203615765      -13.9852097787  MEMB      148             0.0000000000
     17116       148  SAPE      H2S            -1.2219484242       32.0872079106      -14.3798361982  MEMB      148             0.0000000000
     17117       148  SAPE      C3             -2.7290332800       30.8302882802      -18.7799513306  MEMB      148             0.0000000000
     17118       148  SAPE      HX             -2.9681089432       30.8831083939      -19.8943735758  MEMB      148             0.0000000000
     17119       148  SAPE      HY             -3.5614777270       31.1572053764      -18.0493595744  MEMB      148             0.0000000000
     17120       148  SAPE      O31            -2.1440332489       29.6544239451      -18.6111642004  MEMB      148             0.0000000000
     17121       148  SAPE      C31            -2.3001661814       29.2304524134      -17.4392422343  MEMB      148             0.0000000000
     17122       148  SAPE      O32            -3.2487720670       29.4278864733      -16.6871532082  MEMB      148             0.0000000000
     17123       148  SAPE      C32            -1.3199905002       28.2135674538      -17.4594402064  MEMB      148             0.0000000000
     17124       148  SAPE      H2X            -0.4262167380       28.5481714317      -18.0566978959  MEMB      148             0.0000000000
     17125       148  SAPE      H2Y            -1.6959314551       27.2914020347      -17.9416741188  MEMB      148             0.0000000000
     17126       148  SAPE      C23            -1.2573384459       34.3460744747      -13.8268009107  MEMB      148             0.0000000000
     17127       148  SAPE      H3R            -2.1238049320       35.1295712162      -14.0524219400  MEMB      148             0.0000000000
     17128       148  SAPE      H3S            -0.2565761010       34.6738462988      -14.2371831894  MEMB      148             0.0000000000
     17129       148  SAPE      C24            -1.3703579335       34.1109260747      -12.3799096641  MEMB      148             0.0000000000
     17130       148  SAPE      H4R            -0.7813351156       34.8432559669      -11.9725737919  MEMB      148             0.0000000000
     17131       148  SAPE      H4S            -0.7757992804       33.2416869278      -12.0951944189  MEMB      148             0.0000000000
     17132       148  SAPE      C25            -2.7320162266       34.3699269306      -11.8156434086  MEMB      148             0.0000000000
     17133       148  SAPE      H5R            -3.1015149101       35.4089003636      -11.7314599511  MEMB      148             0.0000000000
     17134       148  SAPE      C26            -3.4288937842       33.3832632298      -11.3588268499  MEMB      148             0.0000000000
     17135       148  SAPE      H6R            -4.4665768371       33.6147868403      -11.1015477772  MEMB      148             0.0000000000
     17136       148  SAPE      C27            -2.9086332240       31.9566182143      -11.3724851504  MEMB      148             0.0000000000
     17137       148  SAPE      H7R            -2.6139712109       31.7755815455      -10.3391455735  MEMB      148             0.0000000000
     17138       148  SAPE      H7S            -2.0435041621       31.7004642931      -11.9745583098  MEMB      148             0.0000000000
     17139       148  SAPE      C28            -3.9226478262       31.0025634446      -11.8210070232  MEMB      148             0.0000000000
     17140       148  SAPE      H8R            -3.8580673082       30.5726216805      -12.8129762036  MEMB      148             0.0000000000
     17141       148  SAPE      C29            -4.6256581117       30.3572466557      -11.0188030625  MEMB      148             0.0000000000
     17142       148  SAPE      H9R            -5.5709164737       29.8990449203      -11.3564485159  MEMB      148             0.0000000000
     17143       148  SAPE      C210           -4.4138721747       30.5107523172       -9.6733499847  MEMB      148             0.0000000000
     17144       148  SAPE      H10R           -3.4246339259       30.1797430604       -9.4340472844  MEMB      148             0.0000000000
     17145       148  SAPE      H10S           -4.8451064366       29.6682741412       -9.2709655408  MEMB      148             0.0000000000
     17146       148  SAPE      C211           -4.8430756017       31.8293021235       -9.2673328136  MEMB      148             0.0000000000
     17147       148  SAPE      H11R           -5.7451903791       32.3230859125       -9.6762426154  MEMB      148             0.0000000000
     17148       148  SAPE      C212           -4.2434734618       32.4315543635       -8.3558572717  MEMB      148             0.0000000000
     17149       148  SAPE      H12R           -5.0351231116       32.7206693413       -7.8022789978  MEMB      148             0.0000000000
     17150       148  SAPE      C213           -3.1632712601       32.1152513715       -7.5337529328  MEMB      148             0.0000000000
     17151       148  SAPE      H13R           -2.7843432759       31.2521703943       -8.0090121764  MEMB      148             0.0000000000
     17152       148  SAPE      H13S           -3.9136315635       31.7522075848       -6.8451520988  MEMB      148             0.0000000000
     17153       148  SAPE      C214           -2.0911564376       33.0659401352       -6.9890891381  MEMB      148             0.0000000000
     17154       148  SAPE      H14R           -2.0602627210       33.5942272162       -7.9691342420  MEMB      148             0.0000000000
     17155       148  SAPE      C215           -1.5661999123       33.5454395724       -5.6967346739  MEMB      148             0.0000000000
     17156       148  SAPE      H15R           -0.9980338946       34.4555131174       -5.8700209394  MEMB      148             0.0000000000
     17157       148  SAPE      C216           -1.8426025663       33.3350274230       -4.0175248253  MEMB      148             0.0000000000
     17158       148  SAPE      H16R           -0.9150840436       33.3071337103       -3.4236737882  MEMB      148             0.0000000000
     17159       148  SAPE      H16S           -1.5154213212       32.3219432191       -4.1853730217  MEMB      148             0.0000000000
     17160       148  SAPE      C217           -3.4638025568       33.5110893482       -2.8425045023  MEMB      148             0.0000000000
     17161       148  SAPE      H17R           -4.4477193587       32.9398103992       -3.1502087386  MEMB      148             0.0000000000
     17162       148  SAPE      H17S           -3.6380520287       34.4007920739       -3.1263218721  MEMB      148             0.0000000000
     17163       148  SAPE      C218           -4.4245973861       32.7113635554       -1.6545458541  MEMB      148             0.0000000000
     17164       148  SAPE      H18R           -5.4469853722       32.9150036399       -1.6848998391  MEMB      148             0.0000000000
     17165       148  SAPE      H18S           -3.7571032863       33.5328080893       -1.2930867267  MEMB      148             0.0000000000
     17166       148  SAPE      C219           -4.6125995203       31.0178549995       -1.3773782975  MEMB      148             0.0000000000
     17167       148  SAPE      H19R           -3.8209837611       30.1660182792       -1.5223925130  MEMB      148             0.0000000000
     17168       148  SAPE      H19S           -5.1187961194       30.2654353875       -2.0104362377  MEMB      148             0.0000000000
     17169       148  SAPE      C220           -4.3846536215       30.7443171943       -0.1826789968  MEMB      148             0.0000000000
     17170       148  SAPE      H20R           -5.1432318725       31.5507974485       -0.0382435910  MEMB      148             0.0000000000
     17171       148  SAPE      H20S           -3.5778890655       31.0566074794        0.4208698477  MEMB      148             0.0000000000
     17172       148  SAPE      H20T           -4.5210528364       29.6411237238        0.0069893646  MEMB      148             0.0000000000
     17173       148  SAPE      C33            -1.0737711371       28.0722377998      -15.9949722941  MEMB      148             0.0000000000
     17174       148  SAPE      H3X            -0.3857491042       27.3122281565      -16.2338569997  MEMB      148             0.0000000000
     17175       148  SAPE      H3Y            -1.8598158797       27.5733378399      -15.4120601287  MEMB      148             0.0000000000
     17176       148  SAPE      C34            -0.4705828836       29.3300142248      -15.3477217213  MEMB      148             0.0000000000
     17177       148  SAPE      H4X            -1.3203293464       29.9897851191      -15.1240867431  MEMB      148             0.0000000000
     17178       148  SAPE      H4Y             0.2961329295       29.7331464953      -16.0560468444  MEMB      148             0.0000000000
     17179       148  SAPE      C35             0.2826022911       29.2755705966      -14.0419429861  MEMB      148             0.0000000000
     17180       148  SAPE      H5X             1.1922691952       28.7721345464      -14.4471188923  MEMB      148             0.0000000000
     17181       148  SAPE      H5Y            -0.3006546159       28.7921385248      -13.2152778063  MEMB      148             0.0000000000
     17182       148  SAPE      C36             1.0405962238       30.4715064775      -13.5588386428  MEMB      148             0.0000000000
     17183       148  SAPE      H6X             0.2353362213       31.2051113871      -13.4388870282  MEMB      148             0.0000000000
     17184       148  SAPE      H6Y             1.7493689470       30.7193898641      -14.3851632314  MEMB      148             0.0000000000
     17185       148  SAPE      C37             1.8203059877       30.3524309213      -12.2437806850  MEMB      148             0.0000000000
     17186       148  SAPE      H7X             2.5904682243       29.5431781530      -12.2206757096  MEMB      148             0.0000000000
     17187       148  SAPE      H7Y             1.1025666070       30.1862113371      -11.4132332267  MEMB      148             0.0000000000
     17188       148  SAPE      C38             2.5786492341       31.6573482080      -12.0157538574  MEMB      148             0.0000000000
     17189       148  SAPE      H8X             1.8871298562       32.5272317543      -12.0693873663  MEMB      148             0.0000000000
     17190       148  SAPE      H8Y             3.3022956462       31.7539813768      -12.8618849944  MEMB      148             0.0000000000
     17191       148  SAPE      C39             3.3234289654       31.6628403146      -10.6750360256  MEMB      148             0.0000000000
     17192       148  SAPE      H9X             4.0752521237       32.4819772775      -10.7400558584  MEMB      148             0.0000000000
     17193       148  SAPE      H9Y             3.8885890304       30.7129873263      -10.5729430935  MEMB      148             0.0000000000
     17194       148  SAPE      C310            2.4251274382       32.0007100587       -9.4617345482  MEMB      148             0.0000000000
     17195       148  SAPE      H10X            1.6765136324       32.7319970094       -9.8364820942  MEMB      148             0.0000000000
     17196       148  SAPE      H10Y            3.0120138032       32.5216594850       -8.6703769768  MEMB      148             0.0000000000
     17197       148  SAPE      C311            1.6475554311       30.8523165430       -8.7924376033  MEMB      148             0.0000000000
     17198       148  SAPE      H11X            2.2346509847       29.9097766879       -8.7937608468  MEMB      148             0.0000000000
     17199       148  SAPE      H11Y            0.7282261573       30.6633851776       -9.3947802433  MEMB      148             0.0000000000
     17200       148  SAPE      C312            1.0758978304       31.2419142187       -7.4040744309  MEMB      148             0.0000000000
     17201       148  SAPE      H12X            0.3270245857       30.4600501001       -7.1526622901  MEMB      148             0.0000000000
     17202       148  SAPE      H12Y            0.5326677200       32.1964029067       -7.5788245605  MEMB      148             0.0000000000
     17203       148  SAPE      C313            2.0945123883       31.3741468491       -6.2445618208  MEMB      148             0.0000000000
     17204       148  SAPE      H13X            2.8034617033       32.2100260090       -6.4267820978  MEMB      148             0.0000000000
     17205       148  SAPE      H13Y            2.6887120156       30.4367085385       -6.2436701517  MEMB      148             0.0000000000
     17206       148  SAPE      C314            1.5867902695       31.5719631329       -4.7984706157  MEMB      148             0.0000000000
     17207       148  SAPE      H14X            0.7079897549       32.2351697006       -4.6695118936  MEMB      148             0.0000000000
     17208       148  SAPE      H14Y            2.4170831721       32.0998105977       -4.2646663122  MEMB      148             0.0000000000
     17209       148  SAPE      C315            1.3393997061       30.2471110618       -4.0675042409  MEMB      148             0.0000000000
     17210       148  SAPE      H15X            2.3044431093       29.7539909126       -3.8399149258  MEMB      148             0.0000000000
     17211       148  SAPE      H15Y            0.7156827578       29.5559298855       -4.6745073382  MEMB      148             0.0000000000
     17212       148  SAPE      C316            0.6795052475       30.4751973951       -2.7358990019  MEMB      148             0.0000000000
     17213       148  SAPE      H16X            0.3844969421       29.4891688751       -2.2899669692  MEMB      148             0.0000000000
     17214       148  SAPE      H16Y           -0.2386602151       31.0372452177       -2.9385051998  MEMB      148             0.0000000000
     17215       148  SAPE      C317            1.4723350347       31.4458414831       -1.8377860980  MEMB      148             0.0000000000
     17216       148  SAPE      H17X            1.6978594744       32.3511394768       -2.4057938896  MEMB      148             0.0000000000
     17217       148  SAPE      H17Y            2.3840876069       30.9143930008       -1.5092119833  MEMB      148             0.0000000000
     17218       148  SAPE      C318            0.8207241635       32.0662862218       -0.6366401276  MEMB      148             0.0000000000
     17219       148  SAPE      H18X            0.4543470927       31.1402981533       -0.1993876051  MEMB      148             0.0000000000
     17220       148  SAPE      H18Y           -0.0620966129       32.6910213432       -0.7841596477  MEMB      148             0.0000000000
     17221       148  SAPE      H18Z            1.3936959040       32.6288583893        0.0901997130  MEMB      148             0.0000000000
     17222       149  CHL1      C3             28.1672271402        9.7025700635      -17.6871317347  MEMB      149             0.0000000000
     17223       149  CHL1      H3             27.1209304813        9.8476405074      -17.4339613683  MEMB      149             0.0000000000
     17224       149  CHL1      O3             28.7369769276        9.7722117414      -19.0188779921  MEMB      149             0.0000000000
     17225       149  CHL1      H3'            29.6997484833        9.7699413542      -18.8411953078  MEMB      149             0.0000000000
     17226       149  CHL1      C4             28.4673704818       11.0317740253      -16.8144638027  MEMB      149             0.0000000000
     17227       149  CHL1      H4A            29.4099170575       10.9371454206      -17.4531825826  MEMB      149             0.0000000000
     17228       149  CHL1      H4B            28.9816633991       11.9905655419      -17.0581666073  MEMB      149             0.0000000000
     17229       149  CHL1      C5             28.2988980549       10.8021802279      -15.1794135541  MEMB      149             0.0000000000
     17230       149  CHL1      C6             28.3359869987       11.8883260228      -14.3269066744  MEMB      149             0.0000000000
     17231       149  CHL1      H6             28.8891212981       12.7650556868      -14.7720190893  MEMB      149             0.0000000000
     17232       149  CHL1      C7             28.6553319176       11.6592715547      -12.8499430066  MEMB      149             0.0000000000
     17233       149  CHL1      H7A            29.2442690777       12.4754826598      -12.3456497013  MEMB      149             0.0000000000
     17234       149  CHL1      H7B            27.6056340358       11.6727250546      -12.5749525535  MEMB      149             0.0000000000
     17235       149  CHL1      C8             29.0820367353       10.2879432586      -12.1728501514  MEMB      149             0.0000000000
     17236       149  CHL1      H8             30.1875561137       10.2647117831      -12.2606190460  MEMB      149             0.0000000000
     17237       149  CHL1      C14            28.6137316762       10.0841762896      -10.7326982524  MEMB      149             0.0000000000
     17238       149  CHL1      H14            27.5049570544       10.0940939611      -10.8160082417  MEMB      149             0.0000000000
     17239       149  CHL1      C15            28.8461760801       11.2095526758       -9.7398855657  MEMB      149             0.0000000000
     17240       149  CHL1      H15A           29.8463241810       11.6349189763       -9.8870268566  MEMB      149             0.0000000000
     17241       149  CHL1      H15B           28.2881695867       12.1285337317       -9.9302247025  MEMB      149             0.0000000000
     17242       149  CHL1      C16            28.4481814115       10.5428098447       -8.3938170648  MEMB      149             0.0000000000
     17243       149  CHL1      H16A           29.1023067473       10.6429596082       -7.5280371175  MEMB      149             0.0000000000
     17244       149  CHL1      H16B           27.6113901348       11.0379518858       -7.9098451830  MEMB      149             0.0000000000
     17245       149  CHL1      C17            28.3666080093        8.9901832467       -8.5775274063  MEMB      149             0.0000000000
     17246       149  CHL1      H17            27.2758488094        8.8372159898       -8.5859945253  MEMB      149             0.0000000000
     17247       149  CHL1      C13            28.8256175141        8.7126422681      -10.0049874208  MEMB      149             0.0000000000
     17248       149  CHL1      C18            30.1932068450        8.1462866635      -10.0269766924  MEMB      149             0.0000000000
     17249       149  CHL1      H18A           30.7981973856        8.5337811177       -9.3217612600  MEMB      149             0.0000000000
     17250       149  CHL1      H18B           30.5704643189        7.2592088629       -9.5359656598  MEMB      149             0.0000000000
     17251       149  CHL1      H18C           30.6485201413        8.5019491743      -10.9369587472  MEMB      149             0.0000000000
     17252       149  CHL1      C12            28.1339149135        7.6427873860      -10.7889557867  MEMB      149             0.0000000000
     17253       149  CHL1      H12A           28.3972737884        6.6362139742      -10.3700347879  MEMB      149             0.0000000000
     17254       149  CHL1      H12B           27.0743082060        7.8708102045      -10.8121798959  MEMB      149             0.0000000000
     17255       149  CHL1      C11            28.6210430219        7.7087918343      -12.2231420894  MEMB      149             0.0000000000
     17256       149  CHL1      H11A           29.6171588316        7.2790837143      -12.0920249599  MEMB      149             0.0000000000
     17257       149  CHL1      H11B           28.2793326899        6.8754617617      -12.8410405711  MEMB      149             0.0000000000
     17258       149  CHL1      C9             28.5171886908        9.1551992984      -12.9583952448  MEMB      149             0.0000000000
     17259       149  CHL1      H9             27.3894620655        9.1772764281      -13.0698582320  MEMB      149             0.0000000000
     17260       149  CHL1      C10            29.2173826520        9.5012774244      -14.3591863747  MEMB      149             0.0000000000
     17261       149  CHL1      C19            31.5524619387        9.5485290564      -14.1155884878  MEMB      149             0.0000000000
     17262       149  CHL1      H19A           32.3738297827        9.3172402727      -14.9491799474  MEMB      149             0.0000000000
     17263       149  CHL1      H19B           31.8590368997        9.5350017795      -13.1579811264  MEMB      149             0.0000000000
     17264       149  CHL1      H19C           32.1338771582        8.7111307225      -15.0414631464  MEMB      149             0.0000000000
     17265       149  CHL1      C1             28.1746159632        8.3429267967      -15.4505199466  MEMB      149             0.0000000000
     17266       149  CHL1      H1A            28.3339831495        7.2488173655      -15.4353738001  MEMB      149             0.0000000000
     17267       149  CHL1      H1B            27.1233862514        8.3407760056      -15.1397567581  MEMB      149             0.0000000000
     17268       149  CHL1      C2             28.3003818755        8.2185350119      -17.1239026506  MEMB      149             0.0000000000
     17269       149  CHL1      H2A            27.7659064525        7.4873071566      -17.7184232738  MEMB      149             0.0000000000
     17270       149  CHL1      H2B            29.2977835604        7.7157924563      -17.4402794969  MEMB      149             0.0000000000
     17271       149  CHL1      C20            28.9856764194        8.1878343633       -7.3862117802  MEMB      149             0.0000000000
     17272       149  CHL1      H20            30.0705450858        8.3951800929       -7.2348342805  MEMB      149             0.0000000000
     17273       149  CHL1      C21            28.9524120781        6.6506518544       -7.5366234944  MEMB      149             0.0000000000
     17274       149  CHL1      H21A           29.4964663421        6.2301701410       -6.6639885311  MEMB      149             0.0000000000
     17275       149  CHL1      H21B           29.4508163689        6.2612660159       -8.4410203137  MEMB      149             0.0000000000
     17276       149  CHL1      H21C           27.9121194044        6.2872586383       -7.5226421553  MEMB      149             0.0000000000
     17277       149  CHL1      C22            28.3046573008        8.5697263696       -6.0512198679  MEMB      149             0.0000000000
     17278       149  CHL1      H22A           27.5212059091        9.3401104898       -6.1989529928  MEMB      149             0.0000000000
     17279       149  CHL1      H22B           27.7732358899        7.6444048242       -5.7414380401  MEMB      149             0.0000000000
     17280       149  CHL1      C23            29.2340692521        8.9970290723       -4.8906657973  MEMB      149             0.0000000000
     17281       149  CHL1      H23A           30.0668575021        8.2628853459       -4.8391523160  MEMB      149             0.0000000000
     17282       149  CHL1      H23B           29.7065879839        9.9887436399       -5.0544491229  MEMB      149             0.0000000000
     17283       149  CHL1      C24            28.4190999958        9.0409181086       -3.5785048813  MEMB      149             0.0000000000
     17284       149  CHL1      H24A           27.7184429453        9.9067116381       -3.5914494951  MEMB      149             0.0000000000
     17285       149  CHL1      H24B           27.8170806604        8.1041246693       -3.5568413995  MEMB      149             0.0000000000
     17286       149  CHL1      C25            29.1847350568        9.1558428993       -2.2433968767  MEMB      149             0.0000000000
     17287       149  CHL1      H25            29.4709885416       10.2237547962       -2.1075193110  MEMB      149             0.0000000000
     17288       149  CHL1      C26            28.2777270494        8.7347386234       -1.0808220954  MEMB      149             0.0000000000
     17289       149  CHL1      H26A           28.8150402034        8.7316729852       -0.1090114782  MEMB      149             0.0000000000
     17290       149  CHL1      H26B           27.3967691033        9.3998727592       -0.9742510727  MEMB      149             0.0000000000
     17291       149  CHL1      H26C           27.9474936934        7.6969354479       -1.3061547077  MEMB      149             0.0000000000
     17292       149  CHL1      C27            30.4337708180        8.2701344660       -2.2269887789  MEMB      149             0.0000000000
     17293       149  CHL1      H27A           31.1781182869        8.6974145944       -2.9306887799  MEMB      149             0.0000000000
     17294       149  CHL1      H27B           30.8751087000        8.2040913672       -1.2115255893  MEMB      149             0.0000000000
     17295       149  CHL1      H27C           30.1866352919        7.2328312200       -2.5338296238  MEMB      149             0.0000000000
     17296       150  SOPE      N              18.4232242203      -27.5248601604      -22.7459284052  MEMB      150             0.0000000000
     17297       150  SOPE      HN1            19.3069590037      -27.1872035809      -23.1573746669  MEMB      150             0.0000000000
     17298       150  SOPE      HN2            18.3775201400      -28.5552825866      -22.8544514490  MEMB      150             0.0000000000
     17299       150  SOPE      HN3            17.6291954923      -27.0965432391      -23.2672327274  MEMB      150             0.0000000000
     17300       150  SOPE      C12            18.4734195251      -27.1625295895      -21.2876404119  MEMB      150             0.0000000000
     17301       150  SOPE      H12A           19.2457629390      -27.8126916780      -20.8272392314  MEMB      150             0.0000000000
     17302       150  SOPE      H12B           17.4855464015      -27.3140982607      -20.8075412819  MEMB      150             0.0000000000
     17303       150  SOPE      C11            18.8983124713      -25.7104332605      -21.1176960876  MEMB      150             0.0000000000
     17304       150  SOPE      H11A           19.8548837473      -25.5452025110      -21.6649415299  MEMB      150             0.0000000000
     17305       150  SOPE      H11B           19.1274226300      -25.5483119160      -20.0280715041  MEMB      150             0.0000000000
     17306       150  SOPE      P              17.0051564791      -24.0448936395      -20.5230943106  MEMB      150             0.0000000000
     17307       150  SOPE      O13            16.4889977848      -25.0371013452      -19.5497597728  MEMB      150             0.0000000000
     17308       150  SOPE      O14            16.0237491281      -23.1804951107      -21.2157646894  MEMB      150             0.0000000000
     17309       150  SOPE      O12            17.8604443547      -24.8537889715      -21.6264595131  MEMB      150             0.0000000000
     17310       150  SOPE      O11            18.1347342558      -23.1959090049      -19.8393374558  MEMB      150             0.0000000000
     17311       150  SOPE      C1             19.1404688523      -22.4217217674      -20.4798636565  MEMB      150             0.0000000000
     17312       150  SOPE      HA             18.6810476795      -21.7590569290      -21.2655081010  MEMB      150             0.0000000000
     17313       150  SOPE      HB             19.8561668266      -23.0738967538      -21.0274413479  MEMB      150             0.0000000000
     17314       150  SOPE      C2             19.8941383670      -21.4646859414      -19.4245183443  MEMB      150             0.0000000000
     17315       150  SOPE      HS             20.7412195200      -21.0246188965      -19.9963871117  MEMB      150             0.0000000000
     17316       150  SOPE      O21            20.3843299671      -21.8730445979      -18.0938798508  MEMB      150             0.0000000000
     17317       150  SOPE      C21            21.0865763345      -22.9282917271      -18.1176866585  MEMB      150             0.0000000000
     17318       150  SOPE      O22            21.2500651747      -23.5988970553      -19.0887608586  MEMB      150             0.0000000000
     17319       150  SOPE      C22            21.6592471166      -23.5838769903      -16.8836642581  MEMB      150             0.0000000000
     17320       150  SOPE      H2R            22.3618243976      -22.9687704905      -16.3058470869  MEMB      150             0.0000000000
     17321       150  SOPE      H2S            22.1887339298      -24.5612525212      -17.1392801762  MEMB      150             0.0000000000
     17322       150  SOPE      C3             18.9491611985      -20.3710439379      -19.0191140829  MEMB      150             0.0000000000
     17323       150  SOPE      HX             18.6488809688      -19.8115325040      -19.9305675142  MEMB      150             0.0000000000
     17324       150  SOPE      HY             19.4755750419      -19.6562322086      -18.3482620274  MEMB      150             0.0000000000
     17325       150  SOPE      O31            17.8274003710      -21.0326015404      -18.3758823766  MEMB      150             0.0000000000
     17326       150  SOPE      C31            17.9238627320      -21.3632893247      -17.0927530825  MEMB      150             0.0000000000
     17327       150  SOPE      O32            18.8056190490      -20.9777923884      -16.3419561736  MEMB      150             0.0000000000
     17328       150  SOPE      C32            16.7627661764      -22.2914819970      -16.6518722736  MEMB      150             0.0000000000
     17329       150  SOPE      H2X            17.0167460443      -23.3253146434      -16.9782209669  MEMB      150             0.0000000000
     17330       150  SOPE      H2Y            15.8191714452      -22.0017310382      -17.1450558358  MEMB      150             0.0000000000
     17331       150  SOPE      C23            20.4990363341      -24.2270602061      -16.2977904656  MEMB      150             0.0000000000
     17332       150  SOPE      H3R            20.1421503846      -25.0529552903      -16.9746455276  MEMB      150             0.0000000000
     17333       150  SOPE      H3S            19.7244013197      -23.4340742647      -16.2397272120  MEMB      150             0.0000000000
     17334       150  SOPE      C24            20.9180982017      -24.7333980024      -14.9637282733  MEMB      150             0.0000000000
     17335       150  SOPE      H4R            21.6651727092      -25.5577128065      -15.0052154128  MEMB      150             0.0000000000
     17336       150  SOPE      H4S            21.4068082056      -23.9085987619      -14.3840586105  MEMB      150             0.0000000000
     17337       150  SOPE      C25            19.6414283681      -25.1963322816      -14.3269517887  MEMB      150             0.0000000000
     17338       150  SOPE      H5R            18.9226422252      -24.3450709908      -14.3536687187  MEMB      150             0.0000000000
     17339       150  SOPE      H5S            19.1676984270      -26.0364819692      -14.8831553519  MEMB      150             0.0000000000
     17340       150  SOPE      C26            19.9799518314      -25.6431833831      -12.9365987673  MEMB      150             0.0000000000
     17341       150  SOPE      H6R            20.6530009362      -26.5277009318      -13.0258581757  MEMB      150             0.0000000000
     17342       150  SOPE      H6S            20.5614758231      -24.8232906372      -12.4538352290  MEMB      150             0.0000000000
     17343       150  SOPE      C27            18.7315655329      -25.8800163392      -12.0966023216  MEMB      150             0.0000000000
     17344       150  SOPE      H7R            18.1580351943      -24.9234091722      -12.1172800097  MEMB      150             0.0000000000
     17345       150  SOPE      H7S            18.0770512671      -26.6588974393      -12.5460705744  MEMB      150             0.0000000000
     17346       150  SOPE      C28            19.1378296691      -26.2805783416      -10.6738237128  MEMB      150             0.0000000000
     17347       150  SOPE      H8R            18.2795367226      -26.7043313707      -10.1119389780  MEMB      150             0.0000000000
     17348       150  SOPE      H8S            19.8661747526      -27.1172116134      -10.8054772018  MEMB      150             0.0000000000
     17349       150  SOPE      C29            19.7095983260      -25.0686249791       -9.9625079341  MEMB      150             0.0000000000
     17350       150  SOPE      H91            19.2620544596      -24.1070382397      -10.2661858836  MEMB      150             0.0000000000
     17351       150  SOPE      C210           20.6746219329      -25.0638442174       -9.0252640538  MEMB      150             0.0000000000
     17352       150  SOPE      H101           21.0464287383      -24.1100507382       -8.6180150075  MEMB      150             0.0000000000
     17353       150  SOPE      C211           21.3681682823      -26.2868755228       -8.5022419028  MEMB      150             0.0000000000
     17354       150  SOPE      H11R           22.3929287887      -26.0392851204       -8.1679188830  MEMB      150             0.0000000000
     17355       150  SOPE      H11S           21.4985527724      -27.0358641878       -9.3139613585  MEMB      150             0.0000000000
     17356       150  SOPE      C212           20.5896626672      -26.9157927497       -7.3291953041  MEMB      150             0.0000000000
     17357       150  SOPE      H12R           21.0111147615      -27.9374234038       -7.1910165031  MEMB      150             0.0000000000
     17358       150  SOPE      H12S           19.5006211010      -26.9924559988       -7.5410547463  MEMB      150             0.0000000000
     17359       150  SOPE      C213           20.6725834892      -26.1495000707       -6.0093840195  MEMB      150             0.0000000000
     17360       150  SOPE      H13R           20.1540880969      -25.1759474864       -6.0490360752  MEMB      150             0.0000000000
     17361       150  SOPE      H13S           21.6944784535      -25.9259839173       -5.7833475406  MEMB      150             0.0000000000
     17362       150  SOPE      C214           20.1782069798      -26.9261063888       -4.8011866685  MEMB      150             0.0000000000
     17363       150  SOPE      H14R           20.6794585773      -27.9227220193       -4.7909851894  MEMB      150             0.0000000000
     17364       150  SOPE      H14S           19.0795310531      -27.0353675902       -4.8929054604  MEMB      150             0.0000000000
     17365       150  SOPE      C215           20.4805836983      -26.1598477101       -3.5177407620  MEMB      150             0.0000000000
     17366       150  SOPE      H15R           19.7675901880      -25.3077649007       -3.4240320050  MEMB      150             0.0000000000
     17367       150  SOPE      H15S           21.5021776864      -25.7279064669       -3.6130738261  MEMB      150             0.0000000000
     17368       150  SOPE      C216           20.4282332741      -27.0502293201       -2.2771023215  MEMB      150             0.0000000000
     17369       150  SOPE      H16R           20.5993423687      -26.4399162407       -1.3538674474  MEMB      150             0.0000000000
     17370       150  SOPE      H16S           21.1906039562      -27.8425039930       -2.3065882494  MEMB      150             0.0000000000
     17371       150  SOPE      C217           19.1295009150      -27.7385056732       -2.0692096653  MEMB      150             0.0000000000
     17372       150  SOPE      H17R           19.2529321280      -28.4794951655       -1.2412750668  MEMB      150             0.0000000000
     17373       150  SOPE      H17S           18.6486481873      -28.2528046485       -2.9246584933  MEMB      150             0.0000000000
     17374       150  SOPE      C218           18.2647030346      -26.6870076951       -1.5577125950  MEMB      150             0.0000000000
     17375       150  SOPE      H18R           17.5944870106      -26.2062069849       -2.3165154376  MEMB      150             0.0000000000
     17376       150  SOPE      H18S           18.7269987683      -25.9259297644       -0.9077357212  MEMB      150             0.0000000000
     17377       150  SOPE      H18T           17.7510817492      -27.2778046391       -0.7909095907  MEMB      150             0.0000000000
     17378       150  SOPE      C33            16.6106180657      -22.4055599763      -15.1096055200  MEMB      150             0.0000000000
     17379       150  SOPE      H3X            17.5391293121      -22.0340268401      -14.6162368390  MEMB      150             0.0000000000
     17380       150  SOPE      H3Y            16.5504403190      -23.4802297985      -14.8356358089  MEMB      150             0.0000000000
     17381       150  SOPE      C34            15.3111523521      -21.8711272872      -14.4909307524  MEMB      150             0.0000000000
     17382       150  SOPE      H4X            14.3979163865      -22.3001075982      -14.9234668465  MEMB      150             0.0000000000
     17383       150  SOPE      H4Y            15.0695990619      -20.8349496111      -14.7094278621  MEMB      150             0.0000000000
     17384       150  SOPE      C35            15.2863923510      -22.0658905572      -12.9794758723  MEMB      150             0.0000000000
     17385       150  SOPE      H5X            15.0389194779      -23.1123519066      -12.7445025820  MEMB      150             0.0000000000
     17386       150  SOPE      H5Y            14.4184453699      -21.4386473081      -12.6092888615  MEMB      150             0.0000000000
     17387       150  SOPE      C36            16.6340665282      -21.8548267695      -12.2206383815  MEMB      150             0.0000000000
     17388       150  SOPE      H6X            17.2537010996      -20.9204703174      -12.2641190881  MEMB      150             0.0000000000
     17389       150  SOPE      H6Y            17.4610126029      -22.4928226939      -12.4445548000  MEMB      150             0.0000000000
     17390       150  SOPE      C37            16.2530985034      -21.7163842564      -10.8229129801  MEMB      150             0.0000000000
     17391       150  SOPE      H7X            15.6740566634      -20.8023713191      -11.1932692688  MEMB      150             0.0000000000
     17392       150  SOPE      H7Y            17.1269675095      -21.5542775317      -10.1535954540  MEMB      150             0.0000000000
     17393       150  SOPE      C38            15.1814148384      -22.4830510592      -10.1300319088  MEMB      150             0.0000000000
     17394       150  SOPE      H8X            15.3919714888      -23.4661904026      -10.5794678636  MEMB      150             0.0000000000
     17395       150  SOPE      H8Y            14.2041223337      -22.0431571934      -10.4331699309  MEMB      150             0.0000000000
     17396       150  SOPE      C39            15.2561983221      -22.4561713482       -8.5921105694  MEMB      150             0.0000000000
     17397       150  SOPE      H9X            14.9830039743      -21.4777874676       -8.1495492356  MEMB      150             0.0000000000
     17398       150  SOPE      H9Y            16.2948071941      -22.6719985056       -8.2579002998  MEMB      150             0.0000000000
     17399       150  SOPE      C310           14.2374214424      -23.3767589818       -7.9380641948  MEMB      150             0.0000000000
     17400       150  SOPE      H10X           13.2100601523      -23.0508962919       -8.0867643474  MEMB      150             0.0000000000
     17401       150  SOPE      H10Y           14.3427412826      -23.3328392322       -6.8400103638  MEMB      150             0.0000000000
     17402       150  SOPE      C311           14.3551805260      -24.8044915511       -8.3603632727  MEMB      150             0.0000000000
     17403       150  SOPE      H11X           14.4032667274      -24.9641543383       -9.4657679516  MEMB      150             0.0000000000
     17404       150  SOPE      H11Y           13.4083538374      -25.2963853157       -8.0210318309  MEMB      150             0.0000000000
     17405       150  SOPE      C312           15.6676729335      -25.3382369086       -7.7542063934  MEMB      150             0.0000000000
     17406       150  SOPE      H12X           16.5418602469      -24.8507478915       -8.1866039124  MEMB      150             0.0000000000
     17407       150  SOPE      H12Y           15.8587585241      -26.2830020794       -8.2244112902  MEMB      150             0.0000000000
     17408       150  SOPE      C313           15.8083865107      -25.4837488814       -6.1993125288  MEMB      150             0.0000000000
     17409       150  SOPE      H13X           15.9121427285      -24.4566385468       -5.8271883631  MEMB      150             0.0000000000
     17410       150  SOPE      H13Y           16.5968137416      -26.2330863973       -5.9570164004  MEMB      150             0.0000000000
     17411       150  SOPE      C314           14.6493232579      -25.8952667679       -5.3167375653  MEMB      150             0.0000000000
     17412       150  SOPE      H14X           14.6070771569      -26.9948956588       -5.2096749670  MEMB      150             0.0000000000
     17413       150  SOPE      H14Y           13.7590661763      -25.4920397139       -5.8404191273  MEMB      150             0.0000000000
     17414       150  SOPE      C315           14.7602447261      -25.9067409595       -3.8548086146  MEMB      150             0.0000000000
     17415       150  SOPE      H15X           15.0327019096      -24.8707116187       -3.6748079692  MEMB      150             0.0000000000
     17416       150  SOPE      H15Y           15.4513899592      -26.7525050660       -3.5561292245  MEMB      150             0.0000000000
     17417       150  SOPE      C316           13.4800142228      -26.0642775922       -3.1546677856  MEMB      150             0.0000000000
     17418       150  SOPE      H16X           12.9562467609      -26.9818161516       -3.2435273146  MEMB      150             0.0000000000
     17419       150  SOPE      H16Y           12.7786254837      -25.2368038048       -3.2631611316  MEMB      150             0.0000000000
     17420       150  SOPE      C317           13.5603376390      -26.5851151442       -1.9010640745  MEMB      150             0.0000000000
     17421       150  SOPE      H17X           12.7739475804      -26.5080184698       -1.2820498104  MEMB      150             0.0000000000
     17422       150  SOPE      H17Y           13.8228217149      -25.6247181462       -1.4322861312  MEMB      150             0.0000000000
     17423       150  SOPE      C318           14.1068253977      -28.0314757611       -1.6906843643  MEMB      150             0.0000000000
     17424       150  SOPE      H18X           13.6210861329      -28.9232548020       -2.1000844495  MEMB      150             0.0000000000
     17425       150  SOPE      H18Y           13.8790096421      -27.9491891174       -0.6091816439  MEMB      150             0.0000000000
     17426       150  SOPE      H18Z           15.1665884646      -28.2507728761       -1.8175702320  MEMB      150             0.0000000000
     17427       151  POPC      N              14.3314974795       27.1884855967      -20.3065260071  MEMB      151             0.0000000000
     17428       151  POPC      C12            14.8664128450       25.7603726682      -20.1229616192  MEMB      151             0.0000000000
     17429       151  POPC      H12A           14.8155352124       25.2798090116      -21.0902877943  MEMB      151             0.0000000000
     17430       151  POPC      H12B           14.2227992847       25.2315414017      -19.4367481671  MEMB      151             0.0000000000
     17431       151  POPC      C13            14.1208117326       27.8768090258      -18.9974260659  MEMB      151             0.0000000000
     17432       151  POPC      H13A           13.6665775039       28.8484938260      -19.1030992664  MEMB      151             0.0000000000
     17433       151  POPC      H13B           13.4867382319       27.2687987755      -18.3690778238  MEMB      151             0.0000000000
     17434       151  POPC      H13C           15.0684486697       28.0099466606      -18.4687910757  MEMB      151             0.0000000000
     17435       151  POPC      C14            15.3742970364       27.9357834090      -21.0867349525  MEMB      151             0.0000000000
     17436       151  POPC      H14A           15.5176516902       27.5287722679      -22.0783231689  MEMB      151             0.0000000000
     17437       151  POPC      H14B           15.1980982531       28.9930919794      -21.1413046489  MEMB      151             0.0000000000
     17438       151  POPC      H14C           16.3307754259       27.7724623450      -20.5687733057  MEMB      151             0.0000000000
     17439       151  POPC      C15            13.0044196230       27.1328993142      -20.9971832200  MEMB      151             0.0000000000
     17440       151  POPC      H15A           12.5312711574       28.0982339821      -21.0937578631  MEMB      151             0.0000000000
     17441       151  POPC      H15B           12.3510548471       26.4899793687      -20.4277644320  MEMB      151             0.0000000000
     17442       151  POPC      H15C           13.1100986850       26.7293281836      -22.0040986108  MEMB      151             0.0000000000
     17443       151  POPC      C11            16.3229564809       25.5289387008      -19.6184786041  MEMB      151             0.0000000000
     17444       151  POPC      H11A           17.0376256830       25.8199029263      -20.4289722321  MEMB      151             0.0000000000
     17445       151  POPC      H11B           16.4812530480       24.4355813701      -19.4625445760  MEMB      151             0.0000000000
     17446       151  POPC      P              17.9480187230       26.1556693506      -17.6244093645  MEMB      151             0.0000000000
     17447       151  POPC      O13            18.5277393008       27.5130552621      -17.6353013020  MEMB      151             0.0000000000
     17448       151  POPC      O14            18.7097400975       25.0098689436      -18.1661841742  MEMB      151             0.0000000000
     17449       151  POPC      O12            16.5370454312       26.2261983117      -18.3916273788  MEMB      151             0.0000000000
     17450       151  POPC      O11            17.6002875071       25.7728017581      -16.1428631427  MEMB      151             0.0000000000
     17451       151  POPC      C1             16.5192504765       24.9433922430      -15.8612728206  MEMB      151             0.0000000000
     17452       151  POPC      HA             16.7532266996       24.4054706344      -14.9776500402  MEMB      151             0.0000000000
     17453       151  POPC      HB             16.3119259352       24.1743097493      -16.6523580463  MEMB      151             0.0000000000
     17454       151  POPC      C2             15.4097820821       25.8763969099      -15.4514579502  MEMB      151             0.0000000000
     17455       151  POPC      HS             15.2479549946       26.5788163847      -16.3100141114  MEMB      151             0.0000000000
     17456       151  POPC      O21            15.5373128118       26.4667826740      -14.1799991172  MEMB      151             0.0000000000
     17457       151  POPC      C21            14.8867654506       27.5895272827      -14.0496532490  MEMB      151             0.0000000000
     17458       151  POPC      O22            14.2878735583       28.1997416847      -14.9218687500  MEMB      151             0.0000000000
     17459       151  POPC      C22            14.9999531145       27.9374051994      -12.5933051138  MEMB      151             0.0000000000
     17460       151  POPC      H2R            14.9459276425       29.0275682844      -12.4454030892  MEMB      151             0.0000000000
     17461       151  POPC      H2S            15.9653435145       27.5383096128      -12.2152111956  MEMB      151             0.0000000000
     17462       151  POPC      C3             14.1728261723       25.1968111371      -15.3617325806  MEMB      151             0.0000000000
     17463       151  POPC      HX             14.2886927499       24.7065445915      -16.3475090803  MEMB      151             0.0000000000
     17464       151  POPC      HY             13.4580209169       26.0092122471      -15.5870293138  MEMB      151             0.0000000000
     17465       151  POPC      O31            13.9092130011       24.4524078236      -14.1153949280  MEMB      151             0.0000000000
     17466       151  POPC      C31            12.7523141549       24.0861921731      -13.4248348882  MEMB      151             0.0000000000
     17467       151  POPC      O32            11.7778209032       23.5236196619      -13.7371533437  MEMB      151             0.0000000000
     17468       151  POPC      C32            12.8134710227       23.8486914481      -12.0810694092  MEMB      151             0.0000000000
     17469       151  POPC      H2X            11.8961156845       23.3191712160      -11.6784864894  MEMB      151             0.0000000000
     17470       151  POPC      H2Y            13.3376300216       24.5620024379      -11.4992962882  MEMB      151             0.0000000000
     17471       151  POPC      C23            13.8368787111       27.3031791304      -11.8565857600  MEMB      151             0.0000000000
     17472       151  POPC      H3R            13.8677934915       26.2128199652      -11.9642002268  MEMB      151             0.0000000000
     17473       151  POPC      H3S            12.9210788180       27.6778646648      -12.3431242670  MEMB      151             0.0000000000
     17474       151  POPC      C24            13.8776935156       27.6810848169      -10.3914776063  MEMB      151             0.0000000000
     17475       151  POPC      H4R            13.9475710670       28.7796120854      -10.2578746674  MEMB      151             0.0000000000
     17476       151  POPC      H4S            14.6852480363       27.1347515230       -9.8816618884  MEMB      151             0.0000000000
     17477       151  POPC      C25            12.6414131634       27.3065911081       -9.6870595995  MEMB      151             0.0000000000
     17478       151  POPC      H5R            12.5287353940       26.1778697746       -9.6816192092  MEMB      151             0.0000000000
     17479       151  POPC      H5S            11.8629274912       27.8554908384      -10.2883427273  MEMB      151             0.0000000000
     17480       151  POPC      C26            12.4618429108       27.8021497284       -8.2822503458  MEMB      151             0.0000000000
     17481       151  POPC      H6R            11.4293794075       27.7926324881       -7.8873191829  MEMB      151             0.0000000000
     17482       151  POPC      H6S            12.7344206308       28.8615695975       -8.3300003579  MEMB      151             0.0000000000
     17483       151  POPC      C27            13.4434545979       27.0612655947       -7.4375658868  MEMB      151             0.0000000000
     17484       151  POPC      H7R            14.4417232950       27.2063245705       -7.8873527749  MEMB      151             0.0000000000
     17485       151  POPC      H7S            13.2395837138       25.9775742656       -7.4258183312  MEMB      151             0.0000000000
     17486       151  POPC      C28            13.5102371060       27.5420804131       -6.0418004644  MEMB      151             0.0000000000
     17487       151  POPC      H8R            14.3256551113       26.9369332342       -5.5797692291  MEMB      151             0.0000000000
     17488       151  POPC      H8S            12.5448159591       27.5923167712       -5.4929941199  MEMB      151             0.0000000000
     17489       151  POPC      C29            14.2881338319       28.5959332400       -5.6828135716  MEMB      151             0.0000000000
     17490       151  POPC      H91            14.5002051714       29.0901293800       -6.6016596797  MEMB      151             0.0000000000
     17491       151  POPC      C210           14.1053180272       29.1027719448       -4.4915825468  MEMB      151             0.0000000000
     17492       151  POPC      H101           14.6657799291       29.9091979967       -4.1417397727  MEMB      151             0.0000000000
     17493       151  POPC      C211           13.2367133856       28.8852024091       -3.3200593475  MEMB      151             0.0000000000
     17494       151  POPC      H11R           12.1994366527       28.6045692652       -3.5233265246  MEMB      151             0.0000000000
     17495       151  POPC      H11S           12.9330289001       29.7502264206       -2.6784105090  MEMB      151             0.0000000000
     17496       151  POPC      C212           14.1878999586       28.4323262617       -2.3736838489  MEMB      151             0.0000000000
     17497       151  POPC      H12R           15.2003288561       28.8624916225       -2.2598621675  MEMB      151             0.0000000000
     17498       151  POPC      H12S           14.4679253367       27.5588728519       -2.8333773251  MEMB      151             0.0000000000
     17499       151  POPC      C213           13.3191852642       28.2592152066       -1.2418099088  MEMB      151             0.0000000000
     17500       151  POPC      H13R           13.4462258330       27.2683617375       -0.8951765245  MEMB      151             0.0000000000
     17501       151  POPC      H13S           12.2027062112       28.3001524973       -1.4704598664  MEMB      151             0.0000000000
     17502       151  POPC      C214           13.7838135637       29.3251944186       -0.3334626380  MEMB      151             0.0000000000
     17503       151  POPC      H14R           12.9240547357       29.0518630260        0.3102243116  MEMB      151             0.0000000000
     17504       151  POPC      H14S           13.6247185719       30.3197486758       -0.8039476777  MEMB      151             0.0000000000
     17505       151  POPC      C215           15.1590572556       29.3209055124        0.4074229643  MEMB      151             0.0000000000
     17506       151  POPC      H15R           15.9492207523       29.4123289033       -0.3056590567  MEMB      151             0.0000000000
     17507       151  POPC      H15S           15.5110802514       28.4182947717        0.9336519914  MEMB      151             0.0000000000
     17508       151  POPC      C216           15.2204064020       30.1906154110        1.6286614505  MEMB      151             0.0000000000
     17509       151  POPC      H16R           15.9772106982       29.8694907555        2.3827586357  MEMB      151             0.0000000000
     17510       151  POPC      H16S           14.2799295232       30.0212152214        2.2389530187  MEMB      151             0.0000000000
     17511       151  POPC      C217           15.4988354367       31.6091474861        1.1268255825  MEMB      151             0.0000000000
     17512       151  POPC      H17R           15.9344055693       32.2463620598        1.9185467926  MEMB      151             0.0000000000
     17513       151  POPC      H17S           14.6240706034       32.0944800739        0.6409092783  MEMB      151             0.0000000000
     17514       151  POPC      C218           16.5979928192       31.9875020759        0.2823267101  MEMB      151             0.0000000000
     17515       151  POPC      H18R           17.4950038188       31.5630026268        0.7871018715  MEMB      151             0.0000000000
     17516       151  POPC      H18S           16.5602811118       33.1138056632        0.3055479094  MEMB      151             0.0000000000
     17517       151  POPC      H18T           16.2668201404       31.5820553864       -0.6835473127  MEMB      151             0.0000000000
     17518       151  POPC      C33            13.7476594158       22.8523322904      -12.0914896686  MEMB      151             0.0000000000
     17519       151  POPC      H3X            14.4593538644       22.8021979518      -12.9256494122  MEMB      151             0.0000000000
     17520       151  POPC      H3Y            13.7789495007       21.8720935470      -12.3695616242  MEMB      151             0.0000000000
     17521       151  POPC      C34            13.6647686510       22.3445253696      -10.7429815076  MEMB      151             0.0000000000
     17522       151  POPC      H4X            14.6084271352       21.9615657319      -10.7549279936  MEMB      151             0.0000000000
     17523       151  POPC      H4Y            12.9618569552       21.5128595779      -10.7074632501  MEMB      151             0.0000000000
     17524       151  POPC      C35            14.3007623002       23.0807216063       -9.6330494546  MEMB      151             0.0000000000
     17525       151  POPC      H5X            14.3984520558       22.3548908913       -8.8359831464  MEMB      151             0.0000000000
     17526       151  POPC      H5Y            13.5472635021       23.8624652185       -9.5329866942  MEMB      151             0.0000000000
     17527       151  POPC      C36            15.7821382183       23.5162353747       -9.7648899613  MEMB      151             0.0000000000
     17528       151  POPC      H6X            15.8909435755       24.0808321776      -10.6978434197  MEMB      151             0.0000000000
     17529       151  POPC      H6Y            16.5677523845       22.7249899272       -9.7376399315  MEMB      151             0.0000000000
     17530       151  POPC      C37            16.2200599611       24.4259101594       -8.6852844207  MEMB      151             0.0000000000
     17531       151  POPC      H7X            15.5354106423       25.2734337829       -8.7974173679  MEMB      151             0.0000000000
     17532       151  POPC      H7Y            17.2990046572       24.6443519028       -8.7375284746  MEMB      151             0.0000000000
     17533       151  POPC      C38            15.9127591061       23.8470462522       -7.3760999207  MEMB      151             0.0000000000
     17534       151  POPC      H8X            16.3424498315       22.8970241382       -7.4018188686  MEMB      151             0.0000000000
     17535       151  POPC      H8Y            14.8501542459       23.6917320558       -7.4057426014  MEMB      151             0.0000000000
     17536       151  POPC      C39            16.3187754630       24.6397440718       -6.1973716740  MEMB      151             0.0000000000
     17537       151  POPC      H9X            15.6471577810       25.5028566406       -6.0695147242  MEMB      151             0.0000000000
     17538       151  POPC      H9Y            17.1883300370       25.1183561148       -6.6158714358  MEMB      151             0.0000000000
     17539       151  POPC      C310           16.4734733800       23.8581403277       -4.8689299417  MEMB      151             0.0000000000
     17540       151  POPC      H10X           17.2076796347       23.0707625789       -4.8688319020  MEMB      151             0.0000000000
     17541       151  POPC      H10Y           15.5766989409       23.2487577445       -4.5444702215  MEMB      151             0.0000000000
     17542       151  POPC      C311           16.6191162545       24.8595599717       -3.7156568608  MEMB      151             0.0000000000
     17543       151  POPC      H11X           16.4366957041       24.3320062534       -2.8439133983  MEMB      151             0.0000000000
     17544       151  POPC      H11Y           15.9645281310       25.6743033137       -4.0028908128  MEMB      151             0.0000000000
     17545       151  POPC      C312           17.4527097750       25.8688733896       -3.0410910020  MEMB      151             0.0000000000
     17546       151  POPC      H12X           17.4546577671       26.4980831747       -3.9679751212  MEMB      151             0.0000000000
     17547       151  POPC      H12Y           18.4032348515       25.3852598757       -2.9639502965  MEMB      151             0.0000000000
     17548       151  POPC      C313           18.1214433002       26.0046552792       -1.6525240889  MEMB      151             0.0000000000
     17549       151  POPC      H13X           18.9665802260       26.6509484188       -1.6130105130  MEMB      151             0.0000000000
     17550       151  POPC      H13Y           18.8675036599       25.3158655350       -1.1974510924  MEMB      151             0.0000000000
     17551       151  POPC      C314           17.5267724845       27.0007050238       -0.8917640799  MEMB      151             0.0000000000
     17552       151  POPC      H14X           16.5186548026       26.5900550722       -0.9636947798  MEMB      151             0.0000000000
     17553       151  POPC      H14Y           17.7110182794       27.9586670660       -1.4420482061  MEMB      151             0.0000000000
     17554       151  POPC      C315           18.3243554626       27.1123129293        0.3527132765  MEMB      151             0.0000000000
     17555       151  POPC      H15X           17.7874828478       27.8185875350        0.9606119461  MEMB      151             0.0000000000
     17556       151  POPC      H15Y           19.4124746035       27.3405738969        0.1093376431  MEMB      151             0.0000000000
     17557       151  POPC      C316           18.4497137318       25.9588811915        1.1528399322  MEMB      151             0.0000000000
     17558       151  POPC      H16X           17.5523661808       25.2861447032        1.0188488584  MEMB      151             0.0000000000
     17559       151  POPC      H16Y           18.7786229382       26.0077836432        2.2016196284  MEMB      151             0.0000000000
     17560       151  POPC      H16Z           19.3836568694       25.5358863801        0.6890933600  MEMB      151             0.0000000000
     17561       152  SAPE      N              23.6971086961       17.0408151887      -22.5833131665  MEMB      152             0.0000000000
     17562       152  SAPE      HN1            23.4866744118       16.0547006901      -22.3468310541  MEMB      152             0.0000000000
     17563       152  SAPE      HN2            23.0531779869       17.6453866990      -22.0173616687  MEMB      152             0.0000000000
     17564       152  SAPE      HN3            23.5241946446       17.1763716284      -23.6014781827  MEMB      152             0.0000000000
     17565       152  SAPE      C12            25.1524991646       17.2260877804      -22.2329493947  MEMB      152             0.0000000000
     17566       152  SAPE      H12A           25.3928351161       18.3065142636      -22.3045618698  MEMB      152             0.0000000000
     17567       152  SAPE      H12B           25.7281134170       16.6685015194      -23.0003987072  MEMB      152             0.0000000000
     17568       152  SAPE      C11            25.4736000181       16.6399651792      -20.8448356659  MEMB      152             0.0000000000
     17569       152  SAPE      H11A           25.4820042295       15.5279004061      -20.8860453715  MEMB      152             0.0000000000
     17570       152  SAPE      H11B           24.6925691892       16.9429889750      -20.1049551854  MEMB      152             0.0000000000
     17571       152  SAPE      P              27.0893106825       17.0767571796      -18.8851506697  MEMB      152             0.0000000000
     17572       152  SAPE      O13            26.4963975815       15.8968022423      -18.2217701538  MEMB      152             0.0000000000
     17573       152  SAPE      O14            28.5220827557       17.3973369313      -18.8220526316  MEMB      152             0.0000000000
     17574       152  SAPE      O12            26.7655564544       17.0563686848      -20.4338342044  MEMB      152             0.0000000000
     17575       152  SAPE      O11            26.2650661911       18.3082935505      -18.3462300349  MEMB      152             0.0000000000
     17576       152  SAPE      C1             26.4312885701       19.6097269746      -18.8576867849  MEMB      152             0.0000000000
     17577       152  SAPE      HA             27.3745637940       19.7659968271      -18.6062418352  MEMB      152             0.0000000000
     17578       152  SAPE      HB             26.4748307503       19.7123221656      -19.9515779782  MEMB      152             0.0000000000
     17579       152  SAPE      C2             25.8658134995       20.8280365331      -18.0796000832  MEMB      152             0.0000000000
     17580       152  SAPE      HS             26.4473322620       21.7368791146      -18.3775126423  MEMB      152             0.0000000000
     17581       152  SAPE      O21            25.8054573900       20.6488116175      -16.6520349616  MEMB      152             0.0000000000
     17582       152  SAPE      C21            26.8512341408       20.9914192632      -15.9763747494  MEMB      152             0.0000000000
     17583       152  SAPE      O22            27.9029229286       21.4202495079      -16.3906355610  MEMB      152             0.0000000000
     17584       152  SAPE      C22            26.6323231354       20.7788211887      -14.5114139747  MEMB      152             0.0000000000
     17585       152  SAPE      H2R            25.5817017061       20.6635298820      -14.3031273885  MEMB      152             0.0000000000
     17586       152  SAPE      H2S            27.3350111178       20.0160440749      -14.0923745270  MEMB      152             0.0000000000
     17587       152  SAPE      C3             24.4693796956       20.9798797605      -18.6127920015  MEMB      152             0.0000000000
     17588       152  SAPE      HX             24.5539068509       21.0596982135      -19.7067121724  MEMB      152             0.0000000000
     17589       152  SAPE      HY             23.9038244430       21.8151562174      -18.1706377384  MEMB      152             0.0000000000
     17590       152  SAPE      O31            23.8393406609       19.7723623743      -18.4115969482  MEMB      152             0.0000000000
     17591       152  SAPE      C31            23.0685568984       19.7032853274      -17.4453141114  MEMB      152             0.0000000000
     17592       152  SAPE      O32            22.4925315505       20.5333096002      -16.7510266019  MEMB      152             0.0000000000
     17593       152  SAPE      C32            22.8218714903       18.3343888795      -17.4631857470  MEMB      152             0.0000000000
     17594       152  SAPE      H2X            22.4947889132       17.8897987036      -18.4358190021  MEMB      152             0.0000000000
     17595       152  SAPE      H2Y            21.8483459253       18.5413721036      -17.0511932489  MEMB      152             0.0000000000
     17596       152  SAPE      C23            26.9091921662       22.0844979012      -13.8538877151  MEMB      152             0.0000000000
     17597       152  SAPE      H3R            26.6733369129       22.9895794145      -14.4988084496  MEMB      152             0.0000000000
     17598       152  SAPE      H3S            27.9655131159       21.7789815932      -13.8735429613  MEMB      152             0.0000000000
     17599       152  SAPE      C24            26.7390438769       22.3573223740      -12.3849027846  MEMB      152             0.0000000000
     17600       152  SAPE      H4R            27.1645473501       23.2926422110      -11.9560922094  MEMB      152             0.0000000000
     17601       152  SAPE      H4S            27.0430112859       21.4664896807      -11.8073687641  MEMB      152             0.0000000000
     17602       152  SAPE      C25            25.3243071837       22.4144128971      -12.6103676057  MEMB      152             0.0000000000
     17603       152  SAPE      H5R            24.8449698507       23.2690854240      -13.1283630832  MEMB      152             0.0000000000
     17604       152  SAPE      C26            24.5772630274       21.7835887705      -11.8320885975  MEMB      152             0.0000000000
     17605       152  SAPE      H6R            23.6490528403       22.1519803244      -12.0517340067  MEMB      152             0.0000000000
     17606       152  SAPE      C27            24.8068284702       20.9550388697      -10.6226361863  MEMB      152             0.0000000000
     17607       152  SAPE      H7R            23.9697251833       21.0002455249       -9.9259980179  MEMB      152             0.0000000000
     17608       152  SAPE      H7S            25.6453718029       21.3278022146      -10.0016798405  MEMB      152             0.0000000000
     17609       152  SAPE      C28            24.7190926544       19.5604745214      -10.8132809867  MEMB      152             0.0000000000
     17610       152  SAPE      H8R            25.6698600788       19.0781953033      -10.6639098966  MEMB      152             0.0000000000
     17611       152  SAPE      C29            23.5912368511       18.8882443415      -10.8598911499  MEMB      152             0.0000000000
     17612       152  SAPE      H9R            23.8707994037       17.8723563502      -11.0726814318  MEMB      152             0.0000000000
     17613       152  SAPE      C210           22.1268492840       19.3577304271      -10.7336739338  MEMB      152             0.0000000000
     17614       152  SAPE      H10R           21.6720888235       19.6302313259      -11.7087815125  MEMB      152             0.0000000000
     17615       152  SAPE      H10S           22.1573277016       20.2430252038      -10.1134085109  MEMB      152             0.0000000000
     17616       152  SAPE      C211           20.9954948869       18.8169148591       -9.9502645806  MEMB      152             0.0000000000
     17617       152  SAPE      H11R           20.4154230630       18.0386017292      -10.4762338761  MEMB      152             0.0000000000
     17618       152  SAPE      C212           20.9837619771       18.7627298647       -8.6130861159  MEMB      152             0.0000000000
     17619       152  SAPE      H12R           20.2665919302       18.1398010043       -8.1055299080  MEMB      152             0.0000000000
     17620       152  SAPE      C213           21.9436202709       19.1333474262       -7.5761255943  MEMB      152             0.0000000000
     17621       152  SAPE      H13R           22.9411857180       19.3390497820       -7.9734759213  MEMB      152             0.0000000000
     17622       152  SAPE      H13S           22.0498154982       18.3174751512       -6.8099537931  MEMB      152             0.0000000000
     17623       152  SAPE      C214           21.1832901583       20.3136836564       -7.1374412435  MEMB      152             0.0000000000
     17624       152  SAPE      H14R           20.6596026547       20.9419888742       -7.8810995453  MEMB      152             0.0000000000
     17625       152  SAPE      C215           20.9182324492       20.5278801920       -5.8987980538  MEMB      152             0.0000000000
     17626       152  SAPE      H15R           20.3647288898       21.4298273131       -5.6659721193  MEMB      152             0.0000000000
     17627       152  SAPE      C216           21.2924389324       19.6745859108       -4.7436198469  MEMB      152             0.0000000000
     17628       152  SAPE      H16R           21.1729437930       18.5811197682       -4.8183293600  MEMB      152             0.0000000000
     17629       152  SAPE      H16S           20.6635186673       20.0585668361       -3.9514965522  MEMB      152             0.0000000000
     17630       152  SAPE      C217           22.6590154139       19.8146644574       -4.2526392614  MEMB      152             0.0000000000
     17631       152  SAPE      H17R           23.0983319560       20.2517317833       -5.0901307060  MEMB      152             0.0000000000
     17632       152  SAPE      H17S           23.2118678871       18.9145352460       -3.9712793641  MEMB      152             0.0000000000
     17633       152  SAPE      C218           22.7449333015       20.6792909429       -3.0811442774  MEMB      152             0.0000000000
     17634       152  SAPE      H18R           22.2591631737       20.0795958445       -2.4847322382  MEMB      152             0.0000000000
     17635       152  SAPE      H18S           21.8277958557       21.2794314528       -2.8811173975  MEMB      152             0.0000000000
     17636       152  SAPE      C219           24.2064268406       20.7772043906       -2.3632670631  MEMB      152             0.0000000000
     17637       152  SAPE      H19R           24.5955061943       19.8187383724       -2.1165498314  MEMB      152             0.0000000000
     17638       152  SAPE      H19S           23.6968041752       20.9943815881       -1.4590086834  MEMB      152             0.0000000000
     17639       152  SAPE      C220           25.6215498354       21.6375509815       -2.6585256799  MEMB      152             0.0000000000
     17640       152  SAPE      H20R           25.9917073374       22.6740217693       -2.4071801566  MEMB      152             0.0000000000
     17641       152  SAPE      H20S           25.4694918479       22.7246259931       -2.9637351988  MEMB      152             0.0000000000
     17642       152  SAPE      H20T           25.7962689011       21.3029738542       -3.6642883977  MEMB      152             0.0000000000
     17643       152  SAPE      C33            23.7209007952       17.2779310086      -16.7212119518  MEMB      152             0.0000000000
     17644       152  SAPE      H3X            24.6690029987       17.2986440311      -17.2265698370  MEMB      152             0.0000000000
     17645       152  SAPE      H3Y            23.4126416681       16.2164560041      -16.9463842424  MEMB      152             0.0000000000
     17646       152  SAPE      C34            23.8621703246       17.2638682086      -15.2077178723  MEMB      152             0.0000000000
     17647       152  SAPE      H4X            23.2235826626       16.6735667603      -14.6293175407  MEMB      152             0.0000000000
     17648       152  SAPE      H4Y            23.7142575140       18.2031306628      -14.6781708761  MEMB      152             0.0000000000
     17649       152  SAPE      C35            24.7840849828       16.1768471541      -14.7801580009  MEMB      152             0.0000000000
     17650       152  SAPE      H5X            24.6724643487       15.2960190999      -15.4604714457  MEMB      152             0.0000000000
     17651       152  SAPE      H5Y            24.6214965289       15.7570988734      -13.7539716206  MEMB      152             0.0000000000
     17652       152  SAPE      C36            26.0357334648       16.8991032460      -14.8104554124  MEMB      152             0.0000000000
     17653       152  SAPE      H6X            25.9630539056       17.7616429648      -14.1003535008  MEMB      152             0.0000000000
     17654       152  SAPE      H6Y            26.2555391563       17.3753275785      -15.7918811013  MEMB      152             0.0000000000
     17655       152  SAPE      C37            26.9909936135       15.8004982225      -14.5382375327  MEMB      152             0.0000000000
     17656       152  SAPE      H7X            27.8982988877       16.3355052804      -14.8252445364  MEMB      152             0.0000000000
     17657       152  SAPE      H7Y            27.1261857925       15.0803928141      -15.3628112628  MEMB      152             0.0000000000
     17658       152  SAPE      C38            26.8174878996       15.1754445195      -13.0661085807  MEMB      152             0.0000000000
     17659       152  SAPE      H8X            27.7842631776       14.5830535174      -13.0275550163  MEMB      152             0.0000000000
     17660       152  SAPE      H8Y            26.0193454527       14.4562333708      -12.9584150763  MEMB      152             0.0000000000
     17661       152  SAPE      C39            26.6266574769       16.2117265980      -11.8073291923  MEMB      152             0.0000000000
     17662       152  SAPE      H9X            26.0454652703       17.0625149478      -12.1509049231  MEMB      152             0.0000000000
     17663       152  SAPE      H9Y            27.2829842439       17.0331125852      -11.3934624188  MEMB      152             0.0000000000
     17664       152  SAPE      C310           26.6461414056       15.4850238617      -10.4914622841  MEMB      152             0.0000000000
     17665       152  SAPE      H10X           27.5130476490       14.8840376694      -10.1541704187  MEMB      152             0.0000000000
     17666       152  SAPE      H10Y           25.9361238626       14.7082899262      -10.7598600218  MEMB      152             0.0000000000
     17667       152  SAPE      C311           26.3495119846       16.4120187949       -9.3393928083  MEMB      152             0.0000000000
     17668       152  SAPE      H11X           26.1086743135       15.6983195652       -8.5238358867  MEMB      152             0.0000000000
     17669       152  SAPE      H11Y           25.4587103018       16.9963959758       -9.6478309383  MEMB      152             0.0000000000
     17670       152  SAPE      C312           27.5040261545       17.3346900450       -8.8784766396  MEMB      152             0.0000000000
     17671       152  SAPE      H12X           27.7337159417       18.1312846754       -9.6234009406  MEMB      152             0.0000000000
     17672       152  SAPE      H12Y           28.4459400171       16.7426685214       -8.7689286167  MEMB      152             0.0000000000
     17673       152  SAPE      C313           27.1602155651       17.9009036061       -7.4920962930  MEMB      152             0.0000000000
     17674       152  SAPE      H13X           27.5102354947       17.1135499609       -6.7806865011  MEMB      152             0.0000000000
     17675       152  SAPE      H13Y           26.0793673382       18.0600137204       -7.3861016210  MEMB      152             0.0000000000
     17676       152  SAPE      C314           27.7247555287       19.2724987632       -7.1305111376  MEMB      152             0.0000000000
     17677       152  SAPE      H14X           27.5608101967       20.1084540678       -7.8264293253  MEMB      152             0.0000000000
     17678       152  SAPE      H14Y           28.7114788856       19.0301787445       -7.2190447785  MEMB      152             0.0000000000
     17679       152  SAPE      C315           27.8926691378       19.6191885145       -5.6588750997  MEMB      152             0.0000000000
     17680       152  SAPE      H15X           28.4680004345       18.8123239767       -5.1461977059  MEMB      152             0.0000000000
     17681       152  SAPE      H15Y           26.8681584210       19.6275398318       -5.2660681407  MEMB      152             0.0000000000
     17682       152  SAPE      C316           28.7197098886       20.8858526461       -5.3572238150  MEMB      152             0.0000000000
     17683       152  SAPE      H16X           28.4749954234       21.7482467242       -6.0197184555  MEMB      152             0.0000000000
     17684       152  SAPE      H16Y           29.7931027010       20.6793170115       -5.4888591604  MEMB      152             0.0000000000
     17685       152  SAPE      C317           28.5133176937       21.2931145975       -3.9038767623  MEMB      152             0.0000000000
     17686       152  SAPE      H17X           27.4800826436       21.5455384020       -3.9805627362  MEMB      152             0.0000000000
     17687       152  SAPE      H17Y           28.9677512327       22.2552187711       -3.6234966062  MEMB      152             0.0000000000
     17688       152  SAPE      C318           28.7155374584       20.2250317061       -2.8149000767  MEMB      152             0.0000000000
     17689       152  SAPE      H18X           29.7893176290       20.0516307416       -2.6068708905  MEMB      152             0.0000000000
     17690       152  SAPE      H18Y           28.2500073281       19.2560051845       -3.0892968565  MEMB      152             0.0000000000
     17691       152  SAPE      H18Z           28.2336072978       20.5550802676       -1.8701740245  MEMB      152             0.0000000000
     17692       153  SAPC      N             -30.2214747185       -7.9770828860      -21.5843623063  MEMB      153             0.0000000000
     17693       153  SAPC      C12           -31.3997848011       -7.0644118335      -21.6648703155  MEMB      153             0.0000000000
     17694       153  SAPC      H12A          -32.1948321527       -7.6069032832      -22.1487881942  MEMB      153             0.0000000000
     17695       153  SAPC      H12B          -31.1136928618       -6.2520532161      -22.3212388354  MEMB      153             0.0000000000
     17696       153  SAPC      C13           -30.4506892856       -8.9384940160      -20.4619026271  MEMB      153             0.0000000000
     17697       153  SAPC      H13A          -30.6323327752       -8.3771666374      -19.5427524759  MEMB      153             0.0000000000
     17698       153  SAPC      H13B          -31.3345323911       -9.5493040843      -20.6386252432  MEMB      153             0.0000000000
     17699       153  SAPC      H13C          -29.6127959414       -9.5956841388      -20.3448560443  MEMB      153             0.0000000000
     17700       153  SAPC      C14           -30.0573453605       -8.7030433886      -22.8664838187  MEMB      153             0.0000000000
     17701       153  SAPC      H14A          -29.0646080330       -9.1204114679      -22.9595256474  MEMB      153             0.0000000000
     17702       153  SAPC      H14B          -30.7748181240       -9.5109647317      -22.9764579037  MEMB      153             0.0000000000
     17703       153  SAPC      H14C          -30.1932686907       -8.0247994887      -23.7050169158  MEMB      153             0.0000000000
     17704       153  SAPC      C15           -29.0216551510       -7.1159605747      -21.3969676785  MEMB      153             0.0000000000
     17705       153  SAPC      H15A          -29.0554154337       -6.3077089018      -22.1136025982  MEMB      153             0.0000000000
     17706       153  SAPC      H15B          -29.0634694861       -6.6594709458      -20.4082431623  MEMB      153             0.0000000000
     17707       153  SAPC      H15C          -28.1171637651       -7.6703369965      -21.5703415419  MEMB      153             0.0000000000
     17708       153  SAPC      C11           -31.9250637074       -6.4576929999      -20.3367157804  MEMB      153             0.0000000000
     17709       153  SAPC      H11A          -32.3075217743       -7.2128146508      -19.6147740955  MEMB      153             0.0000000000
     17710       153  SAPC      H11B          -32.8157600037       -5.8883743927      -20.6643638059  MEMB      153             0.0000000000
     17711       153  SAPC      P             -31.3013600817       -4.8044816515      -18.3616851161  MEMB      153             0.0000000000
     17712       153  SAPC      O13           -29.9995516166       -4.3555464942      -17.8088680487  MEMB      153             0.0000000000
     17713       153  SAPC      O14           -32.3284852306       -3.7859441356      -18.6461506752  MEMB      153             0.0000000000
     17714       153  SAPC      O12           -30.9681170883       -5.5954629810      -19.7279888731  MEMB      153             0.0000000000
     17715       153  SAPC      O11           -31.9557063376       -5.8996845374      -17.4147708134  MEMB      153             0.0000000000
     17716       153  SAPC      C1            -31.1161589468       -6.9024554801      -16.8473852907  MEMB      153             0.0000000000
     17717       153  SAPC      HA            -30.3904392268       -7.2755894925      -17.5886956410  MEMB      153             0.0000000000
     17718       153  SAPC      HB            -30.5928739473       -6.4870090543      -15.9521096204  MEMB      153             0.0000000000
     17719       153  SAPC      C2            -31.9154762931       -8.0666709179      -16.2773040014  MEMB      153             0.0000000000
     17720       153  SAPC      HS            -32.5461201521       -8.5337307830      -17.0782215817  MEMB      153             0.0000000000
     17721       153  SAPC      O21           -32.7021111176       -7.4545526900      -15.2998996793  MEMB      153             0.0000000000
     17722       153  SAPC      C21           -33.6842997051       -8.1478630963      -14.9428440136  MEMB      153             0.0000000000
     17723       153  SAPC      O22           -34.2516684019       -9.0125630359      -15.5679308835  MEMB      153             0.0000000000
     17724       153  SAPC      C22           -34.0229994009       -7.6023916494      -13.6427449538  MEMB      153             0.0000000000
     17725       153  SAPC      H2R           -34.2266430368       -6.5538881717      -13.9807498031  MEMB      153             0.0000000000
     17726       153  SAPC      H2S           -34.7955558647       -8.2643693395      -13.1804330538  MEMB      153             0.0000000000
     17727       153  SAPC      C3            -31.0554816935       -9.1532208762      -15.5868065427  MEMB      153             0.0000000000
     17728       153  SAPC      HX            -30.5012557787       -9.7497257528      -16.3344609148  MEMB      153             0.0000000000
     17729       153  SAPC      HY            -31.7503030225       -9.8397366179      -15.0953245197  MEMB      153             0.0000000000
     17730       153  SAPC      O31           -30.2300670479       -8.6587563716      -14.5271853137  MEMB      153             0.0000000000
     17731       153  SAPC      C31           -28.9503027387       -8.4942617359      -14.8115220059  MEMB      153             0.0000000000
     17732       153  SAPC      O32           -28.4198518835       -8.7802779331      -15.8738092452  MEMB      153             0.0000000000
     17733       153  SAPC      C32           -28.2586491619       -7.8255401996      -13.6316149199  MEMB      153             0.0000000000
     17734       153  SAPC      H2X           -27.3132390377       -7.4410335253      -14.0586801191  MEMB      153             0.0000000000
     17735       153  SAPC      H2Y           -27.9778276609       -8.6054335998      -12.8974066255  MEMB      153             0.0000000000
     17736       153  SAPC      C23           -33.0366068034       -7.2710994939      -12.5947988085  MEMB      153             0.0000000000
     17737       153  SAPC      H3R           -33.4333132730       -6.5332545619      -11.8693999739  MEMB      153             0.0000000000
     17738       153  SAPC      H3S           -32.2041297910       -6.7406054166      -13.0755449292  MEMB      153             0.0000000000
     17739       153  SAPC      C24           -32.6580397204       -8.5980832382      -12.0264930316  MEMB      153             0.0000000000
     17740       153  SAPC      H4R           -31.6559290020       -8.3806110734      -11.6369149514  MEMB      153             0.0000000000
     17741       153  SAPC      H4S           -32.6010405777       -9.3184609855      -12.8744079544  MEMB      153             0.0000000000
     17742       153  SAPC      C25           -33.5601068699       -9.2201075979      -11.0178729312  MEMB      153             0.0000000000
     17743       153  SAPC      H5R           -34.5156431479       -9.5328460080      -11.4052191539  MEMB      153             0.0000000000
     17744       153  SAPC      C26           -33.4104903292       -9.3014578551       -9.7041801023  MEMB      153             0.0000000000
     17745       153  SAPC      H6R           -34.1337740607       -9.8998029704       -9.1397436237  MEMB      153             0.0000000000
     17746       153  SAPC      C27           -32.2691750710       -8.7677794428       -8.9200416718  MEMB      153             0.0000000000
     17747       153  SAPC      H7R           -32.6333519289       -8.3955770074       -7.9568487382  MEMB      153             0.0000000000
     17748       153  SAPC      H7S           -31.7546793574       -7.9370072345       -9.4555382363  MEMB      153             0.0000000000
     17749       153  SAPC      C28           -31.3436943464       -9.8667612743       -8.6000231435  MEMB      153             0.0000000000
     17750       153  SAPC      H8R           -31.7817209484      -10.8610602011       -8.3862036045  MEMB      153             0.0000000000
     17751       153  SAPC      C29           -30.0375083603       -9.7424505783       -8.7872811453  MEMB      153             0.0000000000
     17752       153  SAPC      H9R           -29.4551513768      -10.6776416338       -8.7077143426  MEMB      153             0.0000000000
     17753       153  SAPC      C210          -29.3124500706       -8.5330484903       -9.3246944773  MEMB      153             0.0000000000
     17754       153  SAPC      H10R          -29.4556398445       -7.7503464942       -8.5603515698  MEMB      153             0.0000000000
     17755       153  SAPC      H10S          -29.6536286266       -8.1492736021      -10.3142285515  MEMB      153             0.0000000000
     17756       153  SAPC      C211          -27.9188367793       -9.0368012024       -9.4189200725  MEMB      153             0.0000000000
     17757       153  SAPC      H11R          -27.4862471040       -9.2204153712      -10.4257272311  MEMB      153             0.0000000000
     17758       153  SAPC      C212          -27.1282012004       -9.1610021586       -8.3583366418  MEMB      153             0.0000000000
     17759       153  SAPC      H12R          -26.1101802589       -9.5347009109       -8.5780984034  MEMB      153             0.0000000000
     17760       153  SAPC      C213          -27.4225278567       -8.7994181666       -6.9355372325  MEMB      153             0.0000000000
     17761       153  SAPC      H13R          -28.2530488158       -8.1065724475       -6.8221681086  MEMB      153             0.0000000000
     17762       153  SAPC      H13S          -26.5980809644       -8.3541987738       -6.3580651856  MEMB      153             0.0000000000
     17763       153  SAPC      C214          -27.5578245791      -10.0651741365       -6.2921209638  MEMB      153             0.0000000000
     17764       153  SAPC      H14R          -26.6341984683      -10.5891429958       -6.5111456682  MEMB      153             0.0000000000
     17765       153  SAPC      C215          -28.4767211201      -10.4555155431       -5.4254601542  MEMB      153             0.0000000000
     17766       153  SAPC      H15R          -28.3766220712      -11.4614850511       -5.0139398696  MEMB      153             0.0000000000
     17767       153  SAPC      C216          -29.6081745252       -9.5983164815       -4.9236676055  MEMB      153             0.0000000000
     17768       153  SAPC      H16R          -30.5571337417       -9.8261395514       -5.4496041133  MEMB      153             0.0000000000
     17769       153  SAPC      H16S          -29.4007526926       -8.5100447119       -5.0755795821  MEMB      153             0.0000000000
     17770       153  SAPC      C217          -29.8686851236       -9.9046371053       -3.4348510583  MEMB      153             0.0000000000
     17771       153  SAPC      H17R          -29.6525328441      -10.9782508115       -3.2125300563  MEMB      153             0.0000000000
     17772       153  SAPC      H17S          -30.8620404239       -9.5506906825       -3.1287845977  MEMB      153             0.0000000000
     17773       153  SAPC      C218          -28.9259722554       -9.2005709910       -2.5141695888  MEMB      153             0.0000000000
     17774       153  SAPC      H18R          -28.8813562662       -8.1238116951       -2.8227829466  MEMB      153             0.0000000000
     17775       153  SAPC      H18S          -28.0633362352       -9.7697994735       -2.9238490623  MEMB      153             0.0000000000
     17776       153  SAPC      C219          -28.9347997855       -9.4517912707       -0.9379589275  MEMB      153             0.0000000000
     17777       153  SAPC      H19R          -28.8399525471      -10.5300722914       -0.7942782150  MEMB      153             0.0000000000
     17778       153  SAPC      H19S          -29.9219275835       -9.0704926580       -0.6534004502  MEMB      153             0.0000000000
     17779       153  SAPC      C220          -27.9253134048       -8.8764210135        0.1339470892  MEMB      153             0.0000000000
     17780       153  SAPC      H20R          -27.8146490160       -7.7747301059       -0.0851698260  MEMB      153             0.0000000000
     17781       153  SAPC      H20S          -26.8835334831       -9.2443180501        0.1223967860  MEMB      153             0.0000000000
     17782       153  SAPC      H20T          -28.0494907669       -9.0786797634        1.1951537770  MEMB      153             0.0000000000
     17783       153  SAPC      C33           -29.1098718797       -6.6616367940      -13.0400657261  MEMB      153             0.0000000000
     17784       153  SAPC      H3X           -30.0160713850       -7.0460332582      -12.5291450099  MEMB      153             0.0000000000
     17785       153  SAPC      H3Y           -29.4540821794       -5.9579752116      -13.8335683045  MEMB      153             0.0000000000
     17786       153  SAPC      C34           -28.3288568782       -5.7258815496      -12.1280059661  MEMB      153             0.0000000000
     17787       153  SAPC      H4X           -27.4542089375       -5.4030707462      -12.7332077904  MEMB      153             0.0000000000
     17788       153  SAPC      H4Y           -28.0364503042       -6.2734956789      -11.2016504251  MEMB      153             0.0000000000
     17789       153  SAPC      C35           -29.0279192264       -4.4135132133      -11.8054422242  MEMB      153             0.0000000000
     17790       153  SAPC      H5X           -28.9807951813       -3.7498572641      -12.6987933881  MEMB      153             0.0000000000
     17791       153  SAPC      H5Y           -28.4824946699       -3.8717678279      -10.9956704714  MEMB      153             0.0000000000
     17792       153  SAPC      C36           -30.4822484487       -4.6551113514      -11.4596730762  MEMB      153             0.0000000000
     17793       153  SAPC      H6X           -30.7029028137       -5.5846408902      -10.9022493007  MEMB      153             0.0000000000
     17794       153  SAPC      H6Y           -31.1283713660       -4.5861874472      -12.3679317632  MEMB      153             0.0000000000
     17795       153  SAPC      C37           -30.9787677468       -3.6258749436      -10.5319088686  MEMB      153             0.0000000000
     17796       153  SAPC      H7X           -31.1243098054       -2.8135254013      -11.2284436779  MEMB      153             0.0000000000
     17797       153  SAPC      H7Y           -30.2614510343       -3.3710576639       -9.7085027461  MEMB      153             0.0000000000
     17798       153  SAPC      C38           -32.4549410905       -3.7675243386      -10.3008634205  MEMB      153             0.0000000000
     17799       153  SAPC      H8X           -32.9976858336       -4.0192345435      -11.2236918121  MEMB      153             0.0000000000
     17800       153  SAPC      H8Y           -32.9222976676       -2.8012606356      -10.2479693975  MEMB      153             0.0000000000
     17801       153  SAPC      C39           -32.7686046937       -4.6502173436       -9.1325921881  MEMB      153             0.0000000000
     17802       153  SAPC      H9X           -32.3951272901       -5.6469932471       -9.4221715776  MEMB      153             0.0000000000
     17803       153  SAPC      H9Y           -33.8751058719       -4.6005362872       -9.0197434186  MEMB      153             0.0000000000
     17804       153  SAPC      C310          -32.1132784916       -4.4032563170       -7.7793338279  MEMB      153             0.0000000000
     17805       153  SAPC      H10X          -32.3903372538       -3.3738478285       -7.5564586235  MEMB      153             0.0000000000
     17806       153  SAPC      H10Y          -31.0148583708       -4.3268840904       -7.7306277900  MEMB      153             0.0000000000
     17807       153  SAPC      C311          -32.5974827545       -5.5143136733       -6.8128972286  MEMB      153             0.0000000000
     17808       153  SAPC      H11X          -32.1697676991       -6.4725248955       -7.1325008815  MEMB      153             0.0000000000
     17809       153  SAPC      H11Y          -33.7246835063       -5.5352952721       -6.8111739442  MEMB      153             0.0000000000
     17810       153  SAPC      C312          -32.0413735034       -5.4005240821       -5.4042164218  MEMB      153             0.0000000000
     17811       153  SAPC      H12X          -32.7259814609       -4.7439004381       -4.9935204989  MEMB      153             0.0000000000
     17812       153  SAPC      H12Y          -31.0897705013       -4.8817419374       -5.2608198672  MEMB      153             0.0000000000
     17813       153  SAPC      C313          -32.5092162372       -6.2403727136       -4.2664969352  MEMB      153             0.0000000000
     17814       153  SAPC      H13X          -32.3379259978       -7.2703358972       -4.5671560032  MEMB      153             0.0000000000
     17815       153  SAPC      H13Y          -33.6193663281       -6.0918055430       -4.1475085720  MEMB      153             0.0000000000
     17816       153  SAPC      C314          -31.5784209245       -5.9318470300       -3.0743615493  MEMB      153             0.0000000000
     17817       153  SAPC      H14X          -31.5892546666       -4.9016060930       -2.6104033483  MEMB      153             0.0000000000
     17818       153  SAPC      H14Y          -30.5853418810       -6.2451636426       -3.3563932632  MEMB      153             0.0000000000
     17819       153  SAPC      C315          -31.7656323833       -6.8221025259       -1.9222761054  MEMB      153             0.0000000000
     17820       153  SAPC      H15X          -31.9857581405       -7.9027721955       -2.0017588336  MEMB      153             0.0000000000
     17821       153  SAPC      H15Y          -32.6918284154       -6.2930520994       -2.0698980358  MEMB      153             0.0000000000
     17822       153  SAPC      C316          -31.2249479143       -6.3439198885       -0.5777216901  MEMB      153             0.0000000000
     17823       153  SAPC      H16X          -30.1697167946       -6.5059687701       -0.6540477002  MEMB      153             0.0000000000
     17824       153  SAPC      H16Y          -31.3302551817       -7.0676531443        0.2250479631  MEMB      153             0.0000000000
     17825       153  SAPC      C317          -31.8288357507       -5.0300963677        0.0637683763  MEMB      153             0.0000000000
     17826       153  SAPC      H17X          -32.9078581834       -4.7531613583        0.1871595291  MEMB      153             0.0000000000
     17827       153  SAPC      H17Y          -31.3745751401       -4.2455148683       -0.4764959685  MEMB      153             0.0000000000
     17828       153  SAPC      C318          -31.5824672133       -4.9725374497        1.4755865382  MEMB      153             0.0000000000
     17829       153  SAPC      H18X          -30.8086168457       -5.6939807215        1.3651806124  MEMB      153             0.0000000000
     17830       153  SAPC      H18Y          -31.7928102219       -5.6163642978        2.3120603550  MEMB      153             0.0000000000
     17831       153  SAPC      H18Z          -31.2678345676       -3.9912659951        1.8345271897  MEMB      153             0.0000000000
     17832       154  SAPS      N              33.5322661337        3.7272267245      -21.4347267028  MEMB      154             0.0000000000
     17833       154  SAPS      HN1            34.2310016583        4.0439331356      -20.7328174898  MEMB      154             0.0000000000
     17834       154  SAPS      HN2            33.9814327590        3.1604805957      -22.1777289642  MEMB      154             0.0000000000
     17835       154  SAPS      HN3            32.9508996042        4.5139818203      -21.7913614167  MEMB      154             0.0000000000
     17836       154  SAPS      C12            32.6194353758        2.8085394316      -20.6844506925  MEMB      154             0.0000000000
     17837       154  SAPS      H12A           31.8587346918        2.4692512032      -21.3730540938  MEMB      154             0.0000000000
     17838       154  SAPS      C13            33.2856572175        1.5322095985      -20.1076158892  MEMB      154             0.0000000000
     17839       154  SAPS      O13A           34.5033341845        1.3419451885      -20.3768829303  MEMB      154             0.0000000000
     17840       154  SAPS      O13B           32.5387546364        0.6230693671      -19.6710613288  MEMB      154             0.0000000000
     17841       154  SAPS      C11            31.9907195088        3.6396876118      -19.5403723008  MEMB      154             0.0000000000
     17842       154  SAPS      H11A           31.6911286497        4.6470515787      -19.9241399968  MEMB      154             0.0000000000
     17843       154  SAPS      H11B           32.7170571117        3.8190838994      -18.7193638970  MEMB      154             0.0000000000
     17844       154  SAPS      P              29.5223441910        2.8251256868      -19.7552798690  MEMB      154             0.0000000000
     17845       154  SAPS      O13            29.5257140241        3.7639725828      -20.8917285386  MEMB      154             0.0000000000
     17846       154  SAPS      O14            29.1702457482        1.4209314180      -20.0739487848  MEMB      154             0.0000000000
     17847       154  SAPS      O12            30.8933233498        2.9351859174      -18.9810627236  MEMB      154             0.0000000000
     17848       154  SAPS      O11            28.5414441881        3.4272423935      -18.6958032647  MEMB      154             0.0000000000
     17849       154  SAPS      C1             27.9051011337        2.6391078346      -17.7193424882  MEMB      154             0.0000000000
     17850       154  SAPS      HA             26.8719746231        3.0338060253      -17.6609819032  MEMB      154             0.0000000000
     17851       154  SAPS      HB             27.8314424081        1.5542294658      -17.9919507581  MEMB      154             0.0000000000
     17852       154  SAPS      C2             28.6171529023        2.7856345344      -16.3531833133  MEMB      154             0.0000000000
     17853       154  SAPS      HS             28.6323676182        3.8695833510      -16.0851150815  MEMB      154             0.0000000000
     17854       154  SAPS      O21            29.9526158978        2.2568397333      -16.4405255878  MEMB      154             0.0000000000
     17855       154  SAPS      C21            30.8433410795        2.7943420044      -15.6309796036  MEMB      154             0.0000000000
     17856       154  SAPS      O22            30.6149147148        3.6065162263      -14.7477156782  MEMB      154             0.0000000000
     17857       154  SAPS      C22            32.2392363303        2.2584282618      -15.9442175397  MEMB      154             0.0000000000
     17858       154  SAPS      H2R            32.2028540490        1.6424214796      -16.8678859893  MEMB      154             0.0000000000
     17859       154  SAPS      H2S            32.8374493385        3.1668767793      -16.1549969532  MEMB      154             0.0000000000
     17860       154  SAPS      C3             27.7820819804        2.0093854707      -15.3161047571  MEMB      154             0.0000000000
     17861       154  SAPS      HX             27.5086841529        1.0307248009      -15.7722267073  MEMB      154             0.0000000000
     17862       154  SAPS      HY             26.8459687236        2.5895403518      -15.1474884132  MEMB      154             0.0000000000
     17863       154  SAPS      O31            28.4780486169        1.8479593085      -14.0788370252  MEMB      154             0.0000000000
     17864       154  SAPS      C31            29.0773981567        0.6789343023      -13.8966971953  MEMB      154             0.0000000000
     17865       154  SAPS      O32            29.0553124927       -0.2943400073      -14.6222888212  MEMB      154             0.0000000000
     17866       154  SAPS      C32            29.4916678329        0.6447016955      -12.4370729265  MEMB      154             0.0000000000
     17867       154  SAPS      H2X            28.5968965191        0.9748923692      -11.8781814052  MEMB      154             0.0000000000
     17868       154  SAPS      H2Y            30.0854502122        1.5165311211      -12.1889056179  MEMB      154             0.0000000000
     17869       154  SAPS      C23            32.9068224553        1.4391396422      -14.8069106093  MEMB      154             0.0000000000
     17870       154  SAPS      H3R            32.5385134378        0.3923566971      -14.9241807107  MEMB      154             0.0000000000
     17871       154  SAPS      H3S            32.6019249226        1.8135692781      -13.8076176053  MEMB      154             0.0000000000
     17872       154  SAPS      C24            34.4506560871        1.4682034131      -14.9233784304  MEMB      154             0.0000000000
     17873       154  SAPS      H4R            34.8189501540        2.4971981404      -15.1309940141  MEMB      154             0.0000000000
     17874       154  SAPS      H4S            34.6763980448        0.9079528813      -15.8590264456  MEMB      154             0.0000000000
     17875       154  SAPS      C25            35.2870112967        0.7933331578      -13.8658779633  MEMB      154             0.0000000000
     17876       154  SAPS      H5R            35.7947222316       -0.0877545575      -14.2394615480  MEMB      154             0.0000000000
     17877       154  SAPS      C26            35.4412045193        0.9759456990      -12.5567032140  MEMB      154             0.0000000000
     17878       154  SAPS      H6R            36.1910567952        0.4202871892      -11.9886489617  MEMB      154             0.0000000000
     17879       154  SAPS      C27            34.8111253056        1.9438231820      -11.6936033558  MEMB      154             0.0000000000
     17880       154  SAPS      H7R            34.4538436044        1.5090803891      -10.7238934057  MEMB      154             0.0000000000
     17881       154  SAPS      H7S            33.9453058209        2.4680284557      -12.1828209468  MEMB      154             0.0000000000
     17882       154  SAPS      C28            35.9760415094        2.7758188815      -11.3639703530  MEMB      154             0.0000000000
     17883       154  SAPS      H8R            37.0697319484        2.8262952801      -11.5624454829  MEMB      154             0.0000000000
     17884       154  SAPS      C29            35.4896945596        3.6593664855      -10.6419472652  MEMB      154             0.0000000000
     17885       154  SAPS      H9R            36.3170000989        4.4296755643      -10.5874159172  MEMB      154             0.0000000000
     17886       154  SAPS      C210           33.9388053745        3.8807449500      -10.1805463761  MEMB      154             0.0000000000
     17887       154  SAPS      H10R           32.9962591089        3.5024294474      -10.6589651784  MEMB      154             0.0000000000
     17888       154  SAPS      H10S           34.0628274886        4.3466649016      -11.3178729928  MEMB      154             0.0000000000
     17889       154  SAPS      C211           33.4441712554        4.8236465410       -8.7518482081  MEMB      154             0.0000000000
     17890       154  SAPS      H11R           33.9229337839        5.7336017350       -8.3541628807  MEMB      154             0.0000000000
     17891       154  SAPS      C212           32.5473037014        5.0354134996       -7.8478120896  MEMB      154             0.0000000000
     17892       154  SAPS      H12R           32.8884836414        5.4957758236       -6.8619709115  MEMB      154             0.0000000000
     17893       154  SAPS      C213           31.5847947459        4.0345739831       -8.1817431525  MEMB      154             0.0000000000
     17894       154  SAPS      H13R           31.0669872799        4.4042363391       -9.1009672088  MEMB      154             0.0000000000
     17895       154  SAPS      H13S           31.0414835991        4.1922763125       -7.2697961301  MEMB      154             0.0000000000
     17896       154  SAPS      C214           32.0875810300        2.5950063876       -8.3609893465  MEMB      154             0.0000000000
     17897       154  SAPS      H14R           32.3375773910        2.3020552693       -9.3983569301  MEMB      154             0.0000000000
     17898       154  SAPS      C215           32.5374778171        1.8425527310       -7.3860532031  MEMB      154             0.0000000000
     17899       154  SAPS      H15R           32.7385155100        0.8047439291       -7.6333332365  MEMB      154             0.0000000000
     17900       154  SAPS      C216           32.6375699267        2.1831107314       -5.9392286400  MEMB      154             0.0000000000
     17901       154  SAPS      H16R           31.8200284097        1.6299422178       -5.4415419767  MEMB      154             0.0000000000
     17902       154  SAPS      H16S           32.5900604981        3.2493683787       -5.6159339247  MEMB      154             0.0000000000
     17903       154  SAPS      C217           33.9999234842        1.7149663140       -5.5175545059  MEMB      154             0.0000000000
     17904       154  SAPS      H17R           34.7711056866        2.4710076575       -5.7917617581  MEMB      154             0.0000000000
     17905       154  SAPS      H17S           34.2593162155        0.7145221190       -5.9413493294  MEMB      154             0.0000000000
     17906       154  SAPS      C218           34.0511185336        1.6119711772       -4.0508638977  MEMB      154             0.0000000000
     17907       154  SAPS      H18R           33.0556134097        1.3707441804       -3.5904843532  MEMB      154             0.0000000000
     17908       154  SAPS      H18S           34.3490846639        2.5856435154       -3.5759958869  MEMB      154             0.0000000000
     17909       154  SAPS      C219           35.1437158389        0.5689973365       -3.6831904138  MEMB      154             0.0000000000
     17910       154  SAPS      H19R           36.0833848087        0.5643911635       -4.2077159232  MEMB      154             0.0000000000
     17911       154  SAPS      H19S           34.7452968388       -0.4775057692       -3.5763673602  MEMB      154             0.0000000000
     17912       154  SAPS      C220           35.7705268891        0.9647799154       -2.4287966580  MEMB      154             0.0000000000
     17913       154  SAPS      H20R           36.1397990374        0.1398879610       -1.7692379871  MEMB      154             0.0000000000
     17914       154  SAPS      H20S           34.7118685360        1.0334886712       -2.3362339781  MEMB      154             0.0000000000
     17915       154  SAPS      H20T           35.8701233242        1.9468736808       -1.9296920458  MEMB      154             0.0000000000
     17916       154  SAPS      C33            30.1082358075       -0.7521117616      -12.0387426451  MEMB      154             0.0000000000
     17917       154  SAPS      H3X            31.0719436783       -0.8400014453      -12.5752481375  MEMB      154             0.0000000000
     17918       154  SAPS      H3Y            29.4697138609       -1.6159139680      -12.3726435626  MEMB      154             0.0000000000
     17919       154  SAPS      C34            30.4181423217       -0.8931041077      -10.5278024371  MEMB      154             0.0000000000
     17920       154  SAPS      H4X            30.3620406655        0.1220462491      -10.0812415060  MEMB      154             0.0000000000
     17921       154  SAPS      H4Y            31.3489055849       -1.4209634709      -10.2984878914  MEMB      154             0.0000000000
     17922       154  SAPS      C35            29.6436500241       -1.8981963361       -9.7128634619  MEMB      154             0.0000000000
     17923       154  SAPS      H5X            29.2331093878       -2.8240208568      -10.1561432250  MEMB      154             0.0000000000
     17924       154  SAPS      H5Y            28.7859849089       -1.6651129437      -10.2340615566  MEMB      154             0.0000000000
     17925       154  SAPS      C36            29.5072512237       -1.5906523821       -8.1497825609  MEMB      154             0.0000000000
     17926       154  SAPS      H6X            30.0994001641       -2.2283764529       -7.5263556374  MEMB      154             0.0000000000
     17927       154  SAPS      H6Y            28.7205700576       -2.3623461310       -7.9378342521  MEMB      154             0.0000000000
     17928       154  SAPS      C37            29.2274430209       -0.0313006082       -7.6014057926  MEMB      154             0.0000000000
     17929       154  SAPS      H7X            28.3942980063        0.6704626524       -7.9736160665  MEMB      154             0.0000000000
     17930       154  SAPS      H7Y            30.0186004641        0.5727515175       -8.0187085307  MEMB      154             0.0000000000
     17931       154  SAPS      C38            28.8334721415        0.1287626093       -6.1169177314  MEMB      154             0.0000000000
     17932       154  SAPS      H8X            29.3242867061       -0.7046048014       -5.6376129520  MEMB      154             0.0000000000
     17933       154  SAPS      H8Y            27.8028343457       -0.0628822302       -5.7389971029  MEMB      154             0.0000000000
     17934       154  SAPS      C39            28.8053285529        1.5303812621       -5.6384414392  MEMB      154             0.0000000000
     17935       154  SAPS      H9X            28.3187837924        2.1950320249       -6.3990482078  MEMB      154             0.0000000000
     17936       154  SAPS      H9Y            29.8684779065        1.7232514252       -5.4865269724  MEMB      154             0.0000000000
     17937       154  SAPS      C310           27.9805768232        1.5807209118       -4.3808277083  MEMB      154             0.0000000000
     17938       154  SAPS      H10X           28.3258772937        0.7938513533       -3.6779882160  MEMB      154             0.0000000000
     17939       154  SAPS      H10Y           26.9212454747        1.3863058234       -4.6348883422  MEMB      154             0.0000000000
     17940       154  SAPS      C311           27.9439934573        2.9618947627       -3.8283023229  MEMB      154             0.0000000000
     17941       154  SAPS      H11X           27.3483567822        2.8098838260       -2.9447886820  MEMB      154             0.0000000000
     17942       154  SAPS      H11Y           27.3652001744        3.5967363017       -4.5314924932  MEMB      154             0.0000000000
     17943       154  SAPS      C312           29.3024275905        3.5827086254       -3.5561643619  MEMB      154             0.0000000000
     17944       154  SAPS      H12X           29.1821610639        4.5575897956       -3.0422921200  MEMB      154             0.0000000000
     17945       154  SAPS      H12Y           29.7861715780        3.7617595129       -4.5384414570  MEMB      154             0.0000000000
     17946       154  SAPS      C313           30.2641947122        2.7529434727       -2.7371576339  MEMB      154             0.0000000000
     17947       154  SAPS      H13X           31.1668241173        3.3697934637       -2.4962642064  MEMB      154             0.0000000000
     17948       154  SAPS      H13Y           30.5987138563        1.8377754208       -3.2601759330  MEMB      154             0.0000000000
     17949       154  SAPS      C314           29.7560670884        2.3465443581       -1.4035341564  MEMB      154             0.0000000000
     17950       154  SAPS      H14X           28.7981147883        1.7769353598       -1.3468741968  MEMB      154             0.0000000000
     17951       154  SAPS      H14Y           29.6576758676        3.3001906770       -0.8393125637  MEMB      154             0.0000000000
     17952       154  SAPS      C315           30.9343437447        1.6448739696       -0.7609917548  MEMB      154             0.0000000000
     17953       154  SAPS      H15X           30.6465900497        2.0881351115        0.2422553939  MEMB      154             0.0000000000
     17954       154  SAPS      H15Y           31.8451802936        2.2295506446       -0.8490834781  MEMB      154             0.0000000000
     17955       154  SAPS      C316           31.0900240630        0.0369305534       -1.1626515306  MEMB      154             0.0000000000
     17956       154  SAPS      H16X           31.1060560935       -0.0536834975       -2.2358883198  MEMB      154             0.0000000000
     17957       154  SAPS      H16Y           30.2044255701       -0.5683303975       -0.9885979214  MEMB      154             0.0000000000
     17958       154  SAPS      C317           31.9996905867       -1.0896263984       -0.3772054304  MEMB      154             0.0000000000
     17959       154  SAPS      H17X           32.2498596159       -0.1880308211        0.1879403680  MEMB      154             0.0000000000
     17960       154  SAPS      H17Y           32.7844815987       -1.5694145592       -0.9537644014  MEMB      154             0.0000000000
     17961       154  SAPS      C318           32.0458583396       -1.7039430732        1.0147293454  MEMB      154             0.0000000000
     17962       154  SAPS      H18X           32.0027754252       -0.9068780141        1.8210152327  MEMB      154             0.0000000000
     17963       154  SAPS      H18Y           32.6729254957       -2.3752390906        1.5837538268  MEMB      154             0.0000000000
     17964       154  SAPS      H18Z           31.1155192629       -2.2727697073        0.8923644137  MEMB      154             0.0000000000
     17965       155  SAPI      C12           -25.7588763745      -16.1794687269      -23.7864985514  MEMB      155             0.0000000000
     17966       155  SAPI      H2            -25.5005799768      -17.0831812749      -23.1760398544  MEMB      155             0.0000000000
     17967       155  SAPI      O2            -24.6678564301      -15.2525406257      -23.7086474926  MEMB      155             0.0000000000
     17968       155  SAPI      HO2           -24.9234529552      -14.4834097082      -24.2083310841  MEMB      155             0.0000000000
     17969       155  SAPI      C13           -26.0062980600      -16.6263612591      -25.2300350526  MEMB      155             0.0000000000
     17970       155  SAPI      H3            -26.7274359704      -17.4505708667      -25.1716343125  MEMB      155             0.0000000000
     17971       155  SAPI      O3            -24.8532074404      -17.1722253904      -25.8920214589  MEMB      155             0.0000000000
     17972       155  SAPI      HO3           -24.3474616312      -17.7632242750      -25.3174760624  MEMB      155             0.0000000000
     17973       155  SAPI      C14           -26.5507610174      -15.4302735970      -26.0231336589  MEMB      155             0.0000000000
     17974       155  SAPI      H4            -25.7837108992      -14.6319160306      -26.0318913427  MEMB      155             0.0000000000
     17975       155  SAPI      O4            -26.7119070137      -15.7568892883      -27.4132103962  MEMB      155             0.0000000000
     17976       155  SAPI      HO4           -27.2322578617      -16.5587725411      -27.4364756270  MEMB      155             0.0000000000
     17977       155  SAPI      C15           -27.8174970415      -14.8362989404      -25.3825032671  MEMB      155             0.0000000000
     17978       155  SAPI      H5            -28.6373898620      -15.5701017271      -25.3594226258  MEMB      155             0.0000000000
     17979       155  SAPI      O5            -28.3164739185      -13.7399962964      -26.1288570296  MEMB      155             0.0000000000
     17980       155  SAPI      HO5           -29.2453452665      -13.6482377653      -25.8814176502  MEMB      155             0.0000000000
     17981       155  SAPI      C16           -27.5728268780      -14.4129409586      -23.9378759944  MEMB      155             0.0000000000
     17982       155  SAPI      H6            -26.8044450600      -13.6150804017      -23.9110859196  MEMB      155             0.0000000000
     17983       155  SAPI      O6            -28.7570468747      -13.8622119153      -23.3379071584  MEMB      155             0.0000000000
     17984       155  SAPI      HO6           -28.5733203383      -13.6694859473      -22.4095947809  MEMB      155             0.0000000000
     17985       155  SAPI      C11           -27.0799881282      -15.6345913848      -23.1897469530  MEMB      155             0.0000000000
     17986       155  SAPI      H1            -27.8677296999      -16.4297592966      -23.3065662255  MEMB      155             0.0000000000
     17987       155  SAPI      P             -27.7151769308      -16.1364417403      -20.6315249924  MEMB      155             0.0000000000
     17988       155  SAPI      O13           -27.2564139300      -17.5384647897      -20.5894822708  MEMB      155             0.0000000000
     17989       155  SAPI      O14           -29.1566705809      -15.8653620002      -20.7914838283  MEMB      155             0.0000000000
     17990       155  SAPI      O12           -26.8749956271      -15.3120148290      -21.8169494976  MEMB      155             0.0000000000
     17991       155  SAPI      O11           -27.1683834687      -15.3776498938      -19.3672827608  MEMB      155             0.0000000000
     17992       155  SAPI      C1            -26.8686306502      -13.9786948503      -19.4218035943  MEMB      155             0.0000000000
     17993       155  SAPI      HA            -25.7866504074      -13.8439675415      -19.2030171157  MEMB      155             0.0000000000
     17994       155  SAPI      HB            -27.0773958377      -13.4838293179      -20.3992503146  MEMB      155             0.0000000000
     17995       155  SAPI      C2            -27.7116558763      -13.1998413527      -18.3975335828  MEMB      155             0.0000000000
     17996       155  SAPI      HS            -27.2161915536      -12.2212541845      -18.2316752343  MEMB      155             0.0000000000
     17997       155  SAPI      O21           -27.8125853720      -13.8874883713      -17.1686298194  MEMB      155             0.0000000000
     17998       155  SAPI      C21           -26.7702545021      -14.3390533745      -16.5552837826  MEMB      155             0.0000000000
     17999       155  SAPI      O22           -25.5937125294      -14.0825096257      -16.7083528558  MEMB      155             0.0000000000
     18000       155  SAPI      C22           -27.2940791579      -15.3089546581      -15.6190729014  MEMB      155             0.0000000000
     18001       155  SAPI      H2R           -26.6446099359      -15.4497799972      -14.7465926147  MEMB      155             0.0000000000
     18002       155  SAPI      H2S           -28.2703323407      -14.9303046623      -15.2036762015  MEMB      155             0.0000000000
     18003       155  SAPI      C3            -29.1787127812      -12.9699108224      -18.8676562293  MEMB      155             0.0000000000
     18004       155  SAPI      HX            -29.6326230376      -13.9565209662      -19.1245851796  MEMB      155             0.0000000000
     18005       155  SAPI      HY            -29.2370958477      -12.3569044335      -19.7876011987  MEMB      155             0.0000000000
     18006       155  SAPI      O31           -29.8996789633      -12.2825496491      -17.8344984098  MEMB      155             0.0000000000
     18007       155  SAPI      C31           -30.6650024398      -13.0459382823      -17.0534113720  MEMB      155             0.0000000000
     18008       155  SAPI      O32           -31.0329031490      -14.1760365646      -17.2673604969  MEMB      155             0.0000000000
     18009       155  SAPI      C32           -30.9783710651      -12.2217449688      -15.8464116744  MEMB      155             0.0000000000
     18010       155  SAPI      H2X           -31.5758666335      -11.3950456073      -16.2704977928  MEMB      155             0.0000000000
     18011       155  SAPI      H2Y           -30.0040655496      -11.8826279299      -15.4203723810  MEMB      155             0.0000000000
     18012       155  SAPI      C23           -27.4130953592      -16.6774972190      -16.3780003134  MEMB      155             0.0000000000
     18013       155  SAPI      H3R           -26.5493987507      -16.9829309146      -16.9695794629  MEMB      155             0.0000000000
     18014       155  SAPI      H3S           -28.2596895339      -16.6198139942      -17.1510690209  MEMB      155             0.0000000000
     18015       155  SAPI      C24           -27.3637832792      -17.8502092735      -15.4198150840  MEMB      155             0.0000000000
     18016       155  SAPI      H4R           -26.8834690697      -17.9798376178      -14.4966360888  MEMB      155             0.0000000000
     18017       155  SAPI      H4S           -27.4314873571      -18.8591644068      -15.7897722324  MEMB      155             0.0000000000
     18018       155  SAPI      C25           -28.5323481680      -17.2852416243      -14.9303549787  MEMB      155             0.0000000000
     18019       155  SAPI      H5R           -29.2641968108      -17.2654388546      -15.7952435476  MEMB      155             0.0000000000
     18020       155  SAPI      C26           -28.8514968890      -16.9277441458      -13.6901404334  MEMB      155             0.0000000000
     18021       155  SAPI      H6R           -29.8390969915      -17.0593671266      -13.5164068212  MEMB      155             0.0000000000
     18022       155  SAPI      C27           -28.2922182332      -16.9132099501      -12.3525652843  MEMB      155             0.0000000000
     18023       155  SAPI      H7R           -28.7175078323      -16.1003099748      -11.7606261701  MEMB      155             0.0000000000
     18024       155  SAPI      H7S           -27.4328614531      -16.4482111518      -12.7586237110  MEMB      155             0.0000000000
     18025       155  SAPI      C28           -28.1345380745      -18.1115537101      -11.4471856472  MEMB      155             0.0000000000
     18026       155  SAPI      H8R           -27.9631455608      -19.0766309186      -11.9501298537  MEMB      155             0.0000000000
     18027       155  SAPI      C29           -28.2543603082      -18.1583553589      -10.1001818430  MEMB      155             0.0000000000
     18028       155  SAPI      H9R           -27.8330576849      -19.0645048410       -9.6534227621  MEMB      155             0.0000000000
     18029       155  SAPI      C210          -28.5796781264      -17.1021980943       -9.0483772792  MEMB      155             0.0000000000
     18030       155  SAPI      H10R          -29.6104674930      -17.1115058278       -8.8672079738  MEMB      155             0.0000000000
     18031       155  SAPI      H10S          -28.2268552466      -16.0687536092       -9.2472857234  MEMB      155             0.0000000000
     18032       155  SAPI      C211          -28.4879658563      -17.4431710968       -7.6269698675  MEMB      155             0.0000000000
     18033       155  SAPI      H11R          -27.9194996513      -18.3319191940       -7.5307535472  MEMB      155             0.0000000000
     18034       155  SAPI      C212          -29.0330221702      -17.0374855420       -6.5150482504  MEMB      155             0.0000000000
     18035       155  SAPI      H12R          -28.8213479625      -17.5796933617       -5.6024958661  MEMB      155             0.0000000000
     18036       155  SAPI      C213          -30.0322310727      -16.0132637145       -6.3695011952  MEMB      155             0.0000000000
     18037       155  SAPI      H13R          -30.6079182758      -16.2261525708       -5.5110355796  MEMB      155             0.0000000000
     18038       155  SAPI      H13S          -30.7702725839      -16.2382058514       -7.0457037216  MEMB      155             0.0000000000
     18039       155  SAPI      C214          -30.1065803134      -14.6913517213       -6.8755765698  MEMB      155             0.0000000000
     18040       155  SAPI      H14R          -30.1648131054      -14.6379817671       -7.9795779281  MEMB      155             0.0000000000
     18041       155  SAPI      C215          -30.3663999867      -13.7291153562       -6.0166694351  MEMB      155             0.0000000000
     18042       155  SAPI      H15R          -30.4115469040      -12.7357017076       -6.3963523388  MEMB      155             0.0000000000
     18043       155  SAPI      C216          -30.5893655845      -13.8283611549       -4.5373620054  MEMB      155             0.0000000000
     18044       155  SAPI      H16R          -31.5711783506      -14.2296500764       -4.4988941524  MEMB      155             0.0000000000
     18045       155  SAPI      H16S          -30.9344851155      -12.8591298649       -4.1685400686  MEMB      155             0.0000000000
     18046       155  SAPI      C217          -29.4767419499      -14.4570431782       -3.5924508538  MEMB      155             0.0000000000
     18047       155  SAPI      H17R          -28.9945170893      -13.5102379388       -3.2544762839  MEMB      155             0.0000000000
     18048       155  SAPI      H17S          -28.7905520836      -15.0812282382       -4.1852771492  MEMB      155             0.0000000000
     18049       155  SAPI      C218          -29.6558376475      -15.1773037391       -2.1952245748  MEMB      155             0.0000000000
     18050       155  SAPI      H18R          -30.3216233779      -14.5865184540       -1.6016291984  MEMB      155             0.0000000000
     18051       155  SAPI      H18S          -28.8288016422      -15.0250829334       -1.5246180545  MEMB      155             0.0000000000
     18052       155  SAPI      C219          -29.9177751580      -16.6999858277       -1.9449122441  MEMB      155             0.0000000000
     18053       155  SAPI      H19R          -30.6978306763      -16.7629908098       -2.5538647704  MEMB      155             0.0000000000
     18054       155  SAPI      H19S          -30.5474599126      -17.0165228663       -1.0904667800  MEMB      155             0.0000000000
     18055       155  SAPI      C220          -29.3035822442      -17.8570272509       -2.6559740437  MEMB      155             0.0000000000
     18056       155  SAPI      H20R          -29.9957415602      -18.7280889299       -2.6689013478  MEMB      155             0.0000000000
     18057       155  SAPI      H20S          -28.4723137926      -18.0347574691       -1.9769499061  MEMB      155             0.0000000000
     18058       155  SAPI      H20T          -29.0425731615      -17.5931619448       -3.7023032421  MEMB      155             0.0000000000
     18059       155  SAPI      C33           -31.8547735695      -12.9241401662      -14.8093952170  MEMB      155             0.0000000000
     18060       155  SAPI      H3X           -31.2963407402      -13.7878019645      -14.3985904709  MEMB      155             0.0000000000
     18061       155  SAPI      H3Y           -32.7678043223      -13.3099056056      -15.3160655183  MEMB      155             0.0000000000
     18062       155  SAPI      C34           -32.2855150407      -11.9737660437      -13.6866617833  MEMB      155             0.0000000000
     18063       155  SAPI      H4X           -33.1460592023      -12.3946579281      -13.1344657155  MEMB      155             0.0000000000
     18064       155  SAPI      H4Y           -32.7352431190      -11.0691681260      -14.1302960299  MEMB      155             0.0000000000
     18065       155  SAPI      C35           -31.1345006499      -11.6473000134      -12.7204203432  MEMB      155             0.0000000000
     18066       155  SAPI      H5X           -31.3288351515      -10.6936154600      -12.1918841477  MEMB      155             0.0000000000
     18067       155  SAPI      H5Y           -30.1533367195      -11.5292295311      -13.2267845422  MEMB      155             0.0000000000
     18068       155  SAPI      C36           -30.9498916945      -12.7058053109      -11.6439449709  MEMB      155             0.0000000000
     18069       155  SAPI      H6X           -30.4837511864      -13.6253306887      -12.0382415379  MEMB      155             0.0000000000
     18070       155  SAPI      H6Y           -31.9341706198      -12.9022911969      -11.1446126580  MEMB      155             0.0000000000
     18071       155  SAPI      C37           -30.0533720894      -12.2365128932      -10.5331107733  MEMB      155             0.0000000000
     18072       155  SAPI      H7X           -29.9695392799      -12.9465690609       -9.6910685129  MEMB      155             0.0000000000
     18073       155  SAPI      H7Y           -30.7372700905      -11.4767832928      -10.1780996765  MEMB      155             0.0000000000
     18074       155  SAPI      C38           -28.7325021165      -11.5827983157      -10.9456134276  MEMB      155             0.0000000000
     18075       155  SAPI      H8X           -28.1913975741      -11.2826939909      -10.0447021796  MEMB      155             0.0000000000
     18076       155  SAPI      H8Y           -28.9286028711      -10.6493051835      -11.5247670253  MEMB      155             0.0000000000
     18077       155  SAPI      C39           -27.7536233309      -12.4603681526      -11.6816863206  MEMB      155             0.0000000000
     18078       155  SAPI      H9X           -26.7639977853      -11.9379494995      -11.7468264523  MEMB      155             0.0000000000
     18079       155  SAPI      H9Y           -28.1959004879      -12.6253937460      -12.6766926194  MEMB      155             0.0000000000
     18080       155  SAPI      C310          -27.5560130739      -13.8474143094      -11.1214290880  MEMB      155             0.0000000000
     18081       155  SAPI      H10X          -27.0259630265      -14.4414245712      -11.9094409245  MEMB      155             0.0000000000
     18082       155  SAPI      H10Y          -28.4532644342      -14.4055862619      -10.8435456420  MEMB      155             0.0000000000
     18083       155  SAPI      C311          -26.6357179223      -13.8281825048       -9.9654233084  MEMB      155             0.0000000000
     18084       155  SAPI      H11X          -25.8901507092      -13.0719860628      -10.3312130174  MEMB      155             0.0000000000
     18085       155  SAPI      H11Y          -26.3291117296      -14.9052963301       -9.9201866567  MEMB      155             0.0000000000
     18086       155  SAPI      C312          -26.9373246597      -13.2328546249       -8.6323406483  MEMB      155             0.0000000000
     18087       155  SAPI      H12X          -27.7604096796      -13.8731574803       -8.2803792227  MEMB      155             0.0000000000
     18088       155  SAPI      H12Y          -27.1433908094      -12.1678682901       -8.7806008261  MEMB      155             0.0000000000
     18089       155  SAPI      C313          -25.8690744094      -13.2016047367       -7.5778026863  MEMB      155             0.0000000000
     18090       155  SAPI      H13X          -24.8613128241      -12.8233710313       -7.7653705748  MEMB      155             0.0000000000
     18091       155  SAPI      H13Y          -25.7858841046      -14.1809256308       -7.1648422911  MEMB      155             0.0000000000
     18092       155  SAPI      C314          -26.3474985384      -13.0693152243       -6.2165398523  MEMB      155             0.0000000000
     18093       155  SAPI      H14X          -27.2824557768      -13.6357324553       -5.9779598292  MEMB      155             0.0000000000
     18094       155  SAPI      H14Y          -26.5116496379      -12.1157795129       -5.8744298224  MEMB      155             0.0000000000
     18095       155  SAPI      C315          -25.1886551052      -13.3261371709       -5.3594422530  MEMB      155             0.0000000000
     18096       155  SAPI      H15X          -24.5369728498      -12.5264874696       -5.1578532969  MEMB      155             0.0000000000
     18097       155  SAPI      H15Y          -24.6575012683      -14.3323706593       -5.4857808439  MEMB      155             0.0000000000
     18098       155  SAPI      C316          -25.7272418638      -13.2621439631       -4.0437559576  MEMB      155             0.0000000000
     18099       155  SAPI      H16X          -24.7372820710      -13.6105313745       -3.6923469131  MEMB      155             0.0000000000
     18100       155  SAPI      H16Y          -26.4508762831      -14.0520695575       -4.3771196029  MEMB      155             0.0000000000
     18101       155  SAPI      C317          -26.5345240957      -12.3537950167       -3.0554478657  MEMB      155             0.0000000000
     18102       155  SAPI      H17X          -27.4345100924      -12.1100433244       -3.5787890464  MEMB      155             0.0000000000
     18103       155  SAPI      H17Y          -25.9182374840      -11.5508815948       -2.8997347346  MEMB      155             0.0000000000
     18104       155  SAPI      C318          -26.9157064775      -12.5477699730       -1.5259065074  MEMB      155             0.0000000000
     18105       155  SAPI      H18X          -26.0610717751      -12.5121011009       -0.8046118631  MEMB      155             0.0000000000
     18106       155  SAPI      H18Y          -27.4789123082      -13.4758394802       -1.3343288671  MEMB      155             0.0000000000
     18107       155  SAPI      H18Z          -27.4939467021      -11.7081711818       -1.1727674894  MEMB      155             0.0000000000
     18108       156  SAPE      N              -5.1092431656       29.7699322275      -18.6832151716  MEMB      156             0.0000000000
     18109       156  SAPE      HN1            -4.0702556098       29.5807655459      -18.6392785876  MEMB      156             0.0000000000
     18110       156  SAPE      HN2            -5.1553379483       30.1993473671      -17.7274725054  MEMB      156             0.0000000000
     18111       156  SAPE      HN3            -5.5719998492       28.8570894091      -18.7581129520  MEMB      156             0.0000000000
     18112       156  SAPE      C12            -5.3328219319       30.8876278356      -19.7018893003  MEMB      156             0.0000000000
     18113       156  SAPE      H12A           -5.1849498581       30.4942590027      -20.7093082991  MEMB      156             0.0000000000
     18114       156  SAPE      H12B           -4.6291990755       31.7451882805      -19.6994237895  MEMB      156             0.0000000000
     18115       156  SAPE      C11            -6.4269560532       31.7874540412      -19.3111313413  MEMB      156             0.0000000000
     18116       156  SAPE      H11A           -6.2080082103       32.3987303607      -18.3834852954  MEMB      156             0.0000000000
     18117       156  SAPE      H11B           -7.2247169813       31.0767147678      -19.0763025889  MEMB      156             0.0000000000
     18118       156  SAPE      P              -6.1621356717       33.9848678412      -20.6888848278  MEMB      156             0.0000000000
     18119       156  SAPE      O13            -6.8554374025       34.7433380810      -21.7163836518  MEMB      156             0.0000000000
     18120       156  SAPE      O14            -6.2929757462       34.4645764477      -19.3592543868  MEMB      156             0.0000000000
     18121       156  SAPE      O12            -6.6829571556       32.5176246311      -20.5148719894  MEMB      156             0.0000000000
     18122       156  SAPE      O11            -4.6141731596       33.8422842479      -21.0295602278  MEMB      156             0.0000000000
     18123       156  SAPE      C1             -3.7775706583       34.9881909394      -20.8112164201  MEMB      156             0.0000000000
     18124       156  SAPE      HA             -2.9401558535       34.8394931156      -21.4908406148  MEMB      156             0.0000000000
     18125       156  SAPE      HB             -4.2652007758       35.9804112831      -20.7961201899  MEMB      156             0.0000000000
     18126       156  SAPE      C2             -2.9824594877       34.9316811827      -19.5778115825  MEMB      156             0.0000000000
     18127       156  SAPE      HS             -2.3251870628       34.1013483224      -19.9390114523  MEMB      156             0.0000000000
     18128       156  SAPE      O21            -4.1061579891       34.6851007676      -18.6113881105  MEMB      156             0.0000000000
     18129       156  SAPE      C21            -3.5364420751       34.1863186453      -17.6357203770  MEMB      156             0.0000000000
     18130       156  SAPE      O22            -2.3612261916       34.2067083643      -17.8276910279  MEMB      156             0.0000000000
     18131       156  SAPE      C22            -4.3808303803       33.2878330118      -16.5869255553  MEMB      156             0.0000000000
     18132       156  SAPE      H2R            -4.9561878408       34.0134402551      -16.0199828352  MEMB      156             0.0000000000
     18133       156  SAPE      H2S            -4.8796667985       32.5049161354      -17.1207342319  MEMB      156             0.0000000000
     18134       156  SAPE      C3             -1.9444973755       36.0663003206      -19.0088848574  MEMB      156             0.0000000000
     18135       156  SAPE      HX             -1.1398408008       36.0839683583      -19.7162137429  MEMB      156             0.0000000000
     18136       156  SAPE      HY             -1.1887043446       35.8671211563      -18.2060142889  MEMB      156             0.0000000000
     18137       156  SAPE      O31            -2.8010532196       37.0882451945      -18.6883814894  MEMB      156             0.0000000000
     18138       156  SAPE      C31            -2.8406282628       37.1531513096      -17.3309100527  MEMB      156             0.0000000000
     18139       156  SAPE      O32            -1.9860524894       36.9995800288      -16.5429325557  MEMB      156             0.0000000000
     18140       156  SAPE      C32            -4.0331712778       37.6815943607      -17.0092497667  MEMB      156             0.0000000000
     18141       156  SAPE      H2X            -4.7563212595       37.0956287957      -17.5123024576  MEMB      156             0.0000000000
     18142       156  SAPE      H2Y            -3.7965696925       38.4964162586      -17.6883989079  MEMB      156             0.0000000000
     18143       156  SAPE      C23            -4.1567353839       32.0822605543      -15.5472541171  MEMB      156             0.0000000000
     18144       156  SAPE      H3R            -3.4894003109       32.6495084039      -15.1942381278  MEMB      156             0.0000000000
     18145       156  SAPE      H3S            -3.3251401393       31.3384438067      -15.4737168419  MEMB      156             0.0000000000
     18146       156  SAPE      C24            -4.8272840470       32.3114412918      -14.2399037378  MEMB      156             0.0000000000
     18147       156  SAPE      H4R            -5.3230221771       33.2542568999      -13.9967696851  MEMB      156             0.0000000000
     18148       156  SAPE      H4S            -4.0421823079       32.4047405432      -13.4941616303  MEMB      156             0.0000000000
     18149       156  SAPE      C25            -5.5637063518       31.0374188921      -14.3477009313  MEMB      156             0.0000000000
     18150       156  SAPE      H5R            -4.9459458608       30.1972080736      -14.7358649000  MEMB      156             0.0000000000
     18151       156  SAPE      C26            -6.6211460914       30.8392142744      -13.5828989587  MEMB      156             0.0000000000
     18152       156  SAPE      H6R            -7.1121541760       29.8674010329      -13.5816746978  MEMB      156             0.0000000000
     18153       156  SAPE      C27            -7.0769146763       31.8880801572      -12.6086932067  MEMB      156             0.0000000000
     18154       156  SAPE      H7R            -7.5893669669       32.6673956001      -13.2120770404  MEMB      156             0.0000000000
     18155       156  SAPE      H7S            -6.1964599123       32.4045104465      -12.1444985211  MEMB      156             0.0000000000
     18156       156  SAPE      C28            -8.1022775569       31.4337662103      -11.5885926723  MEMB      156             0.0000000000
     18157       156  SAPE      H8R            -9.1085698981       31.6235791668      -11.9117168150  MEMB      156             0.0000000000
     18158       156  SAPE      C29            -8.1877918837       30.9291160446      -10.3456723333  MEMB      156             0.0000000000
     18159       156  SAPE      H9R            -9.1199172894       30.8863118032       -9.8389934420  MEMB      156             0.0000000000
     18160       156  SAPE      C210           -7.2909601606       30.5464860516       -9.2929501633  MEMB      156             0.0000000000
     18161       156  SAPE      H10R           -7.0617048579       31.4270868091       -8.7350671825  MEMB      156             0.0000000000
     18162       156  SAPE      H10S           -6.6742466169       30.2071604495      -10.0596628054  MEMB      156             0.0000000000
     18163       156  SAPE      C211           -6.9231123856       29.4145120363       -8.4722202422  MEMB      156             0.0000000000
     18164       156  SAPE      H11R           -7.7594560052       28.8321161563       -8.4214434946  MEMB      156             0.0000000000
     18165       156  SAPE      C212           -6.1414620745       29.1319736352       -7.4545909609  MEMB      156             0.0000000000
     18166       156  SAPE      H12R           -6.0729402857       28.1065323957       -7.1320170766  MEMB      156             0.0000000000
     18167       156  SAPE      C213           -5.2608450644       29.8429387581       -6.6216084375  MEMB      156             0.0000000000
     18168       156  SAPE      H13R           -5.5224254066       29.6691911945       -5.5610642778  MEMB      156             0.0000000000
     18169       156  SAPE      H13S           -5.6270854082       30.9058975841       -6.6852082923  MEMB      156             0.0000000000
     18170       156  SAPE      C214           -3.8344492747       29.3135281392       -6.9077973993  MEMB      156             0.0000000000
     18171       156  SAPE      H14R           -3.5948657316       29.1570388055       -7.9264484580  MEMB      156             0.0000000000
     18172       156  SAPE      C215           -2.7156007577       29.5843530969       -6.2496688203  MEMB      156             0.0000000000
     18173       156  SAPE      H15R           -1.8540870275       30.0665549362       -6.7761586015  MEMB      156             0.0000000000
     18174       156  SAPE      C216           -3.0121345432       30.4595330594       -5.2032530629  MEMB      156             0.0000000000
     18175       156  SAPE      H16R           -4.0794525290       30.7902990191       -5.1374350698  MEMB      156             0.0000000000
     18176       156  SAPE      H16S           -2.3810980737       31.3006589745       -5.4569377409  MEMB      156             0.0000000000
     18177       156  SAPE      C217           -2.6005334540       30.0140188850       -3.9221200091  MEMB      156             0.0000000000
     18178       156  SAPE      H17R           -1.6191720361       30.1660738832       -3.6425610562  MEMB      156             0.0000000000
     18179       156  SAPE      H17S           -3.3142585609       29.2330511360       -3.6226486548  MEMB      156             0.0000000000
     18180       156  SAPE      C218           -2.7776238153       31.0739727468       -3.0392756085  MEMB      156             0.0000000000
     18181       156  SAPE      H18R           -3.8790153499       30.9429984842       -3.3116094356  MEMB      156             0.0000000000
     18182       156  SAPE      H18S           -3.6533026173       31.4859726870       -3.3042713254  MEMB      156             0.0000000000
     18183       156  SAPE      C219           -2.0689320613       31.7971638455       -1.6786482864  MEMB      156             0.0000000000
     18184       156  SAPE      H19R           -2.5053892172       32.4080895454       -0.7856870699  MEMB      156             0.0000000000
     18185       156  SAPE      H19S           -1.5770908668       32.7274759040       -1.8625571312  MEMB      156             0.0000000000
     18186       156  SAPE      C220           -1.7017195862       31.0092309621       -0.6959977255  MEMB      156             0.0000000000
     18187       156  SAPE      H20R           -0.9634998073       30.5708949976       -1.2704275148  MEMB      156             0.0000000000
     18188       156  SAPE      H20S           -2.2492273350       30.1375252080       -0.5534112442  MEMB      156             0.0000000000
     18189       156  SAPE      H20T           -1.4999193015       31.4101668742        0.3255496678  MEMB      156             0.0000000000
     18190       156  SAPE      C33            -4.5151777044       37.9288107557      -15.5868909747  MEMB      156             0.0000000000
     18191       156  SAPE      H3X            -5.4622731455       38.4854277109      -15.4320753166  MEMB      156             0.0000000000
     18192       156  SAPE      H3Y            -3.8811881268       38.5000105256      -14.9189621356  MEMB      156             0.0000000000
     18193       156  SAPE      C34            -5.3459021348       36.7724666105      -15.2314929959  MEMB      156             0.0000000000
     18194       156  SAPE      H4X            -4.8706434981       35.9093611584      -15.6864726499  MEMB      156             0.0000000000
     18195       156  SAPE      H4Y            -6.2741801949       36.9709462016      -15.7817618817  MEMB      156             0.0000000000
     18196       156  SAPE      C35            -5.5903962625       36.7706318287      -13.7850400185  MEMB      156             0.0000000000
     18197       156  SAPE      H5X            -5.9599538809       37.8042552036      -13.5168418464  MEMB      156             0.0000000000
     18198       156  SAPE      H5Y            -4.6530483229       36.4506444908      -13.3376668659  MEMB      156             0.0000000000
     18199       156  SAPE      C36            -6.6016150845       35.8174219076      -13.3207776541  MEMB      156             0.0000000000
     18200       156  SAPE      H6X            -6.6079146405       34.7555590641      -13.6337883015  MEMB      156             0.0000000000
     18201       156  SAPE      H6Y            -7.4010789240       36.3790428332      -13.7365923696  MEMB      156             0.0000000000
     18202       156  SAPE      C37            -7.2207336751       36.1835430919      -12.0611105093  MEMB      156             0.0000000000
     18203       156  SAPE      H7X            -8.3038113888       36.1218358960      -12.1149243285  MEMB      156             0.0000000000
     18204       156  SAPE      H7Y            -7.1245521769       37.2610641604      -11.8740395821  MEMB      156             0.0000000000
     18205       156  SAPE      C38            -6.7433449499       35.2386878492      -11.0929994427  MEMB      156             0.0000000000
     18206       156  SAPE      H8X            -5.6689244893       35.4508758199      -10.9706898716  MEMB      156             0.0000000000
     18207       156  SAPE      H8Y            -6.8461026845       34.1510650119      -11.2751960999  MEMB      156             0.0000000000
     18208       156  SAPE      C39            -7.6353906437       35.4410917167       -9.9652959857  MEMB      156             0.0000000000
     18209       156  SAPE      H9X            -8.4806958141       36.1304092598      -10.0046659110  MEMB      156             0.0000000000
     18210       156  SAPE      H9Y            -7.2903280756       36.1653779048       -9.3663771972  MEMB      156             0.0000000000
     18211       156  SAPE      C310           -7.3667554484       34.4798561527       -8.9697915740  MEMB      156             0.0000000000
     18212       156  SAPE      H10X           -7.7657914660       33.4714919083       -9.0811296948  MEMB      156             0.0000000000
     18213       156  SAPE      H10Y           -8.1149531296       34.6714925449       -8.1660281335  MEMB      156             0.0000000000
     18214       156  SAPE      C311           -5.7312063976       34.6597970488       -8.8106388331  MEMB      156             0.0000000000
     18215       156  SAPE      H11X           -5.2593983943       34.1676645186       -9.6105864562  MEMB      156             0.0000000000
     18216       156  SAPE      H11Y           -6.1087220205       33.9306247374       -8.1589378186  MEMB      156             0.0000000000
     18217       156  SAPE      C312           -4.4687047390       35.5785064262       -8.0604058916  MEMB      156             0.0000000000
     18218       156  SAPE      H12X           -4.3520093706       36.1892176323       -8.9255276831  MEMB      156             0.0000000000
     18219       156  SAPE      H12Y           -3.5024410929       35.0925187193       -8.1745126359  MEMB      156             0.0000000000
     18220       156  SAPE      C313           -4.3219918293       36.4619773978       -6.5384084808  MEMB      156             0.0000000000
     18221       156  SAPE      H13X           -5.2023978700       36.9502303471       -6.0488900335  MEMB      156             0.0000000000
     18222       156  SAPE      H13Y           -3.7459955569       37.3612927994       -6.6071997546  MEMB      156             0.0000000000
     18223       156  SAPE      C314           -4.0496584983       36.0014091306       -5.2370279775  MEMB      156             0.0000000000
     18224       156  SAPE      H14X           -3.2447793051       35.4264576540       -5.6741706403  MEMB      156             0.0000000000
     18225       156  SAPE      H14Y           -5.0227420128       35.7080900896       -4.8740891397  MEMB      156             0.0000000000
     18226       156  SAPE      C315           -4.0238468555       36.5674658316       -3.9242775476  MEMB      156             0.0000000000
     18227       156  SAPE      H15X           -3.0217378559       36.7737308059       -4.1519799143  MEMB      156             0.0000000000
     18228       156  SAPE      H15Y           -3.7919382743       36.0337106229       -3.0401897759  MEMB      156             0.0000000000
     18229       156  SAPE      C316           -5.3734432016       37.0389804749       -3.3557201569  MEMB      156             0.0000000000
     18230       156  SAPE      H16X           -5.7502470506       37.7345987336       -4.1217186949  MEMB      156             0.0000000000
     18231       156  SAPE      H16Y           -4.9681089349       37.4274490154       -2.4036072817  MEMB      156             0.0000000000
     18232       156  SAPE      C317           -6.5891491789       36.1053732363       -2.9422698403  MEMB      156             0.0000000000
     18233       156  SAPE      H17X           -7.1991726319       35.5178559412       -3.6487359616  MEMB      156             0.0000000000
     18234       156  SAPE      H17Y           -7.3010845180       36.7999383876       -2.5051187741  MEMB      156             0.0000000000
     18235       156  SAPE      C318           -6.3950993611       35.0461211238       -1.9233219522  MEMB      156             0.0000000000
     18236       156  SAPE      H18X           -7.2726231131       34.5462403594       -1.4910288410  MEMB      156             0.0000000000
     18237       156  SAPE      H18Y           -5.5232890801       35.2430484273       -1.2834704885  MEMB      156             0.0000000000
     18238       156  SAPE      H18Z           -6.2733579941       34.1554108594       -2.5132919834  MEMB      156             0.0000000000
     18239       157  SAPE      N              14.9520085010      -30.8570022001      -20.3134904805  MEMB      157             0.0000000000
     18240       157  SAPE      HN1            15.0067091149      -29.9501266181      -20.8358905415  MEMB      157             0.0000000000
     18241       157  SAPE      HN2            15.8867005370      -31.3032081831      -20.2824342556  MEMB      157             0.0000000000
     18242       157  SAPE      HN3            14.2899638867      -31.5065134131      -20.7839263856  MEMB      157             0.0000000000
     18243       157  SAPE      C12            14.3866027991      -30.5623606530      -18.9426666613  MEMB      157             0.0000000000
     18244       157  SAPE      H12A           14.9462640343      -29.6825991834      -18.5560745034  MEMB      157             0.0000000000
     18245       157  SAPE      H12B           14.5585203626      -31.4631677494      -18.3191568929  MEMB      157             0.0000000000
     18246       157  SAPE      C11            12.8740059408      -30.2525995067      -18.9642507703  MEMB      157             0.0000000000
     18247       157  SAPE      H11A           12.7217025759      -29.3722744867      -19.6297996327  MEMB      157             0.0000000000
     18248       157  SAPE      H11B           12.5126963473      -29.9331805504      -17.9615581395  MEMB      157             0.0000000000
     18249       157  SAPE      P              10.9613602769      -31.1636367867      -20.4616595532  MEMB      157             0.0000000000
     18250       157  SAPE      O13            11.6405391213      -30.6333061626      -21.6589051366  MEMB      157             0.0000000000
     18251       157  SAPE      O14            10.1704900501      -32.3953797007      -20.6078193197  MEMB      157             0.0000000000
     18252       157  SAPE      O12            12.1130282260      -31.3948905972      -19.3668373422  MEMB      157             0.0000000000
     18253       157  SAPE      O11            10.0290750093      -30.0848514167      -19.8143660454  MEMB      157             0.0000000000
     18254       157  SAPE      C1              9.3793453700      -30.3330285094      -18.5805660926  MEMB      157             0.0000000000
     18255       157  SAPE      HA              8.3143592656      -30.6458568349      -18.7214643193  MEMB      157             0.0000000000
     18256       157  SAPE      HB              9.8707475718      -31.0839891560      -17.9211435738  MEMB      157             0.0000000000
     18257       157  SAPE      C2              9.3367668487      -29.0225926059      -17.8439864238  MEMB      157             0.0000000000
     18258       157  SAPE      HS              8.6048418895      -28.4249446230      -18.4501484271  MEMB      157             0.0000000000
     18259       157  SAPE      O21            10.6313579711      -28.3961454360      -17.6822737781  MEMB      157             0.0000000000
     18260       157  SAPE      C21            10.4767167024      -27.1210272904      -17.4469115979  MEMB      157             0.0000000000
     18261       157  SAPE      O22             9.3674429601      -26.5921317391      -17.5009464004  MEMB      157             0.0000000000
     18262       157  SAPE      C22            11.9096278623      -26.4581848667      -17.6162550806  MEMB      157             0.0000000000
     18263       157  SAPE      H2R            12.6979993636      -27.1786763987      -17.7976252653  MEMB      157             0.0000000000
     18264       157  SAPE      H2S            12.0213351314      -25.6719807101      -18.4056334334  MEMB      157             0.0000000000
     18265       157  SAPE      C3              8.8099187931      -29.3243883235      -16.4640505363  MEMB      157             0.0000000000
     18266       157  SAPE      HX              7.8958507942      -29.9001093141      -16.5823445834  MEMB      157             0.0000000000
     18267       157  SAPE      HY              8.7456343473      -28.3552590777      -16.0028867099  MEMB      157             0.0000000000
     18268       157  SAPE      O31             9.6283426138      -30.1352819622      -15.6575964192  MEMB      157             0.0000000000
     18269       157  SAPE      C31             8.9827007881      -30.5283452511      -14.5704403347  MEMB      157             0.0000000000
     18270       157  SAPE      O32             7.8947227829      -30.2023314936      -14.1851277626  MEMB      157             0.0000000000
     18271       157  SAPE      C32             9.7750378202      -31.5149204962      -13.8438172437  MEMB      157             0.0000000000
     18272       157  SAPE      H2X             9.9479182448      -32.2206072034      -14.6602254872  MEMB      157             0.0000000000
     18273       157  SAPE      H2Y             9.1221894862      -31.8790775473      -13.0272242666  MEMB      157             0.0000000000
     18274       157  SAPE      C23            12.3071268944      -25.6399923062      -16.4772683191  MEMB      157             0.0000000000
     18275       157  SAPE      H3R            11.4270532402      -25.0210303986      -16.5748667683  MEMB      157             0.0000000000
     18276       157  SAPE      H3S            13.0826370228      -24.8662690986      -16.6612398819  MEMB      157             0.0000000000
     18277       157  SAPE      C24            12.5225421677      -26.4194818413      -15.1689204882  MEMB      157             0.0000000000
     18278       157  SAPE      H4R            12.7844430537      -25.7782358122      -14.3224087630  MEMB      157             0.0000000000
     18279       157  SAPE      H4S            13.4946834258      -26.8976403836      -15.3276430086  MEMB      157             0.0000000000
     18280       157  SAPE      C25            11.4771014620      -27.4064551525      -14.7096530937  MEMB      157             0.0000000000
     18281       157  SAPE      H5R            11.7050933665      -28.3927447903      -15.1203870344  MEMB      157             0.0000000000
     18282       157  SAPE      C26            10.4839865655      -27.3270915312      -13.7891474959  MEMB      157             0.0000000000
     18283       157  SAPE      H6R             9.8465481322      -28.1916106214      -13.6071256770  MEMB      157             0.0000000000
     18284       157  SAPE      C27            10.0704807670      -26.2126038903      -12.8863601736  MEMB      157             0.0000000000
     18285       157  SAPE      H7R             9.0226599998      -26.2120463291      -12.4974703080  MEMB      157             0.0000000000
     18286       157  SAPE      H7S             9.7795142215      -25.4207484721      -13.5520424118  MEMB      157             0.0000000000
     18287       157  SAPE      C28            11.1868194302      -25.7156815762      -11.9602445703  MEMB      157             0.0000000000
     18288       157  SAPE      H8R            11.5358768608      -24.6807564262      -12.1014127521  MEMB      157             0.0000000000
     18289       157  SAPE      C29            11.7858655184      -26.2078829761      -10.9525396529  MEMB      157             0.0000000000
     18290       157  SAPE      H9R            12.3269189467      -25.4853970462      -10.3168923629  MEMB      157             0.0000000000
     18291       157  SAPE      C210           11.3775505595      -27.5406117104      -10.5277299702  MEMB      157             0.0000000000
     18292       157  SAPE      H10R           12.3298062248      -28.0705500165      -10.4929426956  MEMB      157             0.0000000000
     18293       157  SAPE      H10S           10.7517145577      -28.0601853177      -11.2879288804  MEMB      157             0.0000000000
     18294       157  SAPE      C211           10.6794101444      -27.4244815974       -9.2145263371  MEMB      157             0.0000000000
     18295       157  SAPE      H11R           10.9480909858      -26.5531266867       -8.6066763712  MEMB      157             0.0000000000
     18296       157  SAPE      C212            9.7846621102      -28.2859611490       -8.7330585672  MEMB      157             0.0000000000
     18297       157  SAPE      H12R            9.3511203937      -28.0790788004       -7.7463492976  MEMB      157             0.0000000000
     18298       157  SAPE      C213            9.3199822992      -29.5310662165       -9.4350925167  MEMB      157             0.0000000000
     18299       157  SAPE      H13R            9.1336875907      -29.2847659762      -10.5026458733  MEMB      157             0.0000000000
     18300       157  SAPE      H13S            8.3277713107      -29.8242368557       -9.0266600726  MEMB      157             0.0000000000
     18301       157  SAPE      C214           10.3036576009      -30.6742506650       -9.3899914883  MEMB      157             0.0000000000
     18302       157  SAPE      H14R           10.7328336985      -30.9508914014      -10.3602229919  MEMB      157             0.0000000000
     18303       157  SAPE      C215           10.6845300343      -31.3860676836       -8.3199938388  MEMB      157             0.0000000000
     18304       157  SAPE      H15R           11.3439428569      -32.2580378077       -8.4807207928  MEMB      157             0.0000000000
     18305       157  SAPE      C216           10.2042460729      -31.1983433535       -6.9082085274  MEMB      157             0.0000000000
     18306       157  SAPE      H16R            9.3477453073      -31.8773266285       -6.7298206205  MEMB      157             0.0000000000
     18307       157  SAPE      H16S            9.8404132981      -30.1728179867       -6.6616095327  MEMB      157             0.0000000000
     18308       157  SAPE      C217           11.3443024114      -31.5512076163       -5.9526631225  MEMB      157             0.0000000000
     18309       157  SAPE      H17R           12.0832666247      -30.7212883495       -5.9841407328  MEMB      157             0.0000000000
     18310       157  SAPE      H17S           11.8627054259      -32.4822036505       -6.2782114629  MEMB      157             0.0000000000
     18311       157  SAPE      C218           10.8262256622      -31.7146003777       -4.5282269292  MEMB      157             0.0000000000
     18312       157  SAPE      H18R           10.2200997812      -32.6471979676       -4.4386890229  MEMB      157             0.0000000000
     18313       157  SAPE      H18S           10.2030262319      -30.8232796333       -4.2897736771  MEMB      157             0.0000000000
     18314       157  SAPE      C219           11.9314203220      -31.8020515101       -3.5040054302  MEMB      157             0.0000000000
     18315       157  SAPE      H19R           12.5337106383      -30.8618686195       -3.4699913577  MEMB      157             0.0000000000
     18316       157  SAPE      H19S           12.6048709159      -32.6452866576       -3.7787418634  MEMB      157             0.0000000000
     18317       157  SAPE      C220           11.4010541815      -32.0424923119       -2.1135359297  MEMB      157             0.0000000000
     18318       157  SAPE      H20R           12.3242727896      -31.9672963885       -1.5382745572  MEMB      157             0.0000000000
     18319       157  SAPE      H20S           10.9891053142      -33.0526382627       -1.9454405355  MEMB      157             0.0000000000
     18320       157  SAPE      H20T           10.6832861405      -31.2693785657       -1.7644491221  MEMB      157             0.0000000000
     18321       157  SAPE      C33            11.1804787750      -31.1020273798      -13.4406818621  MEMB      157             0.0000000000
     18322       157  SAPE      H3X            11.1566481614      -30.1742745626      -12.8339855122  MEMB      157             0.0000000000
     18323       157  SAPE      H3Y            11.7123253639      -30.9110007812      -14.4025914964  MEMB      157             0.0000000000
     18324       157  SAPE      C34            11.9231997127      -32.2102359148      -12.6816966829  MEMB      157             0.0000000000
     18325       157  SAPE      H4X            11.6499580166      -33.2267876128      -13.0405614343  MEMB      157             0.0000000000
     18326       157  SAPE      H4Y            11.6649544083      -32.1401956949      -11.6087446773  MEMB      157             0.0000000000
     18327       157  SAPE      C35            13.4240300572      -32.1312980436      -12.8304307783  MEMB      157             0.0000000000
     18328       157  SAPE      H5X            13.6787285642      -32.0401150800      -13.9120440267  MEMB      157             0.0000000000
     18329       157  SAPE      H5Y            13.9258618051      -33.0435207224      -12.4145340104  MEMB      157             0.0000000000
     18330       157  SAPE      C36            14.0364739125      -30.9001871232      -12.2038542535  MEMB      157             0.0000000000
     18331       157  SAPE      H6X            13.8206312714      -29.9568778436      -12.7233083604  MEMB      157             0.0000000000
     18332       157  SAPE      H6Y            15.0304715781      -31.1269620256      -12.5134002691  MEMB      157             0.0000000000
     18333       157  SAPE      C37            13.9386004114      -30.7842345987      -10.6914988020  MEMB      157             0.0000000000
     18334       157  SAPE      H7X            14.3428823743      -31.6756441298      -10.1674370781  MEMB      157             0.0000000000
     18335       157  SAPE      H7Y            12.8662137487      -30.7155707640      -10.4506289782  MEMB      157             0.0000000000
     18336       157  SAPE      C38            14.6034768386      -29.5561243004      -10.1107618464  MEMB      157             0.0000000000
     18337       157  SAPE      H8X            14.4529375044      -28.6646497713      -10.7640176150  MEMB      157             0.0000000000
     18338       157  SAPE      H8Y            15.6973288296      -29.6041155803       -9.8840529290  MEMB      157             0.0000000000
     18339       157  SAPE      C39            13.9458357724      -29.3301587932       -8.8072108445  MEMB      157             0.0000000000
     18340       157  SAPE      H9X            14.3070067606      -29.9885397573       -7.9728070921  MEMB      157             0.0000000000
     18341       157  SAPE      H9Y            12.8408765453      -29.2900460970       -8.8200010552  MEMB      157             0.0000000000
     18342       157  SAPE      C310           14.3591317960      -28.0095949786       -8.4883401864  MEMB      157             0.0000000000
     18343       157  SAPE      H10X           13.8789460303      -27.1481021681       -9.0227318855  MEMB      157             0.0000000000
     18344       157  SAPE      H10Y           15.4715521703      -27.9990445849       -8.6300211754  MEMB      157             0.0000000000
     18345       157  SAPE      C311           14.0426016475      -27.9855551464       -7.0658501358  MEMB      157             0.0000000000
     18346       157  SAPE      H11X           14.3056399464      -26.9834086460       -7.1357651844  MEMB      157             0.0000000000
     18347       157  SAPE      H11Y           14.8367510727      -28.4255945927       -6.4219753181  MEMB      157             0.0000000000
     18348       157  SAPE      C312           12.5895675077      -27.7547768572       -6.6235141746  MEMB      157             0.0000000000
     18349       157  SAPE      H12X           12.1429795906      -28.7466485305       -6.6203636317  MEMB      157             0.0000000000
     18350       157  SAPE      H12Y           12.1356157588      -26.9239303392       -7.1949117691  MEMB      157             0.0000000000
     18351       157  SAPE      C313           12.2556198375      -27.3729417434       -5.2270599173  MEMB      157             0.0000000000
     18352       157  SAPE      H13X           12.3444523559      -26.2742302265       -5.0603715765  MEMB      157             0.0000000000
     18353       157  SAPE      H13Y           12.9578985277      -28.0379010322       -4.6498627509  MEMB      157             0.0000000000
     18354       157  SAPE      C314           10.8370418223      -27.2971122958       -4.7260568411  MEMB      157             0.0000000000
     18355       157  SAPE      H14X           10.5108129627      -28.3350175382       -4.8084202612  MEMB      157             0.0000000000
     18356       157  SAPE      H14Y           10.3710532471      -26.5820978279       -5.4383765331  MEMB      157             0.0000000000
     18357       157  SAPE      C315           10.5509865386      -26.7606244691       -3.3108733586  MEMB      157             0.0000000000
     18358       157  SAPE      H15X            9.4794937699      -26.6029458216       -3.1516128022  MEMB      157             0.0000000000
     18359       157  SAPE      H15Y           10.9795092838      -25.7571305939       -3.0860856561  MEMB      157             0.0000000000
     18360       157  SAPE      C316           10.8943570250      -27.7302988604       -2.2186298800  MEMB      157             0.0000000000
     18361       157  SAPE      H16X           11.8632323654      -28.1826102331       -2.4038898379  MEMB      157             0.0000000000
     18362       157  SAPE      H16Y           10.4759584572      -28.7431419291       -2.2207802423  MEMB      157             0.0000000000
     18363       157  SAPE      C317           10.7449605489      -26.9876201631       -0.8954150114  MEMB      157             0.0000000000
     18364       157  SAPE      H17X           11.2774375975      -26.1072232520       -0.4479182002  MEMB      157             0.0000000000
     18365       157  SAPE      H17Y           11.4364447460      -27.5404157346       -0.3796295595  MEMB      157             0.0000000000
     18366       157  SAPE      C318            9.4635359967      -27.1057140922       -0.2893262176  MEMB      157             0.0000000000
     18367       157  SAPE      H18X            9.0788551849      -28.1344961828       -0.3232776540  MEMB      157             0.0000000000
     18368       157  SAPE      H18Y            8.8927180340      -26.2985169799       -0.7842542193  MEMB      157             0.0000000000
     18369       157  SAPE      H18Z            9.7221063501      -26.8997936092        0.7295446813  MEMB      157             0.0000000000
     18370       158  OSM       N              24.1404892181      -23.6197027711      -19.7792276993  MEMB      158             0.0000000000
     18371       158  OSM       C15            24.0873599549      -25.0440404572      -20.1904786010  MEMB      158             0.0000000000
     18372       158  OSM       H15A           24.9686121255      -25.5846769210      -19.8485554484  MEMB      158             0.0000000000
     18373       158  OSM       H15B           24.0117476555      -25.0217648208      -21.2700800208  MEMB      158             0.0000000000
     18374       158  OSM       H15C           23.1931919250      -25.5330249964      -19.7982208176  MEMB      158             0.0000000000
     18375       158  OSM       C14            23.0822017775      -22.9575986085      -20.6155183422  MEMB      158             0.0000000000
     18376       158  OSM       H14A           22.9318797156      -23.0379275148      -21.6864371580  MEMB      158             0.0000000000
     18377       158  OSM       H14B           22.6751073611      -22.0781467533      -20.1494654078  MEMB      158             0.0000000000
     18378       158  OSM       H14C           22.2952276860      -23.6950760999      -20.4643805058  MEMB      158             0.0000000000
     18379       158  OSM       C13            23.9626641629      -23.5726884005      -18.3242209463  MEMB      158             0.0000000000
     18380       158  OSM       H13A           23.0247887374      -24.1059721897      -18.2888546591  MEMB      158             0.0000000000
     18381       158  OSM       H13B           23.7381757172      -22.5922108790      -17.9194832424  MEMB      158             0.0000000000
     18382       158  OSM       H13C           24.5800097444      -24.1368827395      -17.6276048998  MEMB      158             0.0000000000
     18383       158  OSM       C12            25.3490465683      -22.8727961197      -19.8706875360  MEMB      158             0.0000000000
     18384       158  OSM       H12A           26.0446815884      -23.3577618896      -19.2058977195  MEMB      158             0.0000000000
     18385       158  OSM       H12B           25.1126967124      -21.8746063062      -19.4991523289  MEMB      158             0.0000000000
     18386       158  OSM       C11            25.9231543396      -22.7592957646      -21.2328384625  MEMB      158             0.0000000000
     18387       158  OSM       H11A           26.1119933001      -23.7873212178      -21.5960410830  MEMB      158             0.0000000000
     18388       158  OSM       H11B           26.8895874810      -22.2723843264      -20.9799397203  MEMB      158             0.0000000000
     18389       158  OSM       P              25.5236575417      -20.5359961776      -22.4398637049  MEMB      158             0.0000000000
     18390       158  OSM       O13            26.9943752613      -20.4089288757      -22.3649086098  MEMB      158             0.0000000000
     18391       158  OSM       O14            24.8175094094      -19.9980898872      -23.6253589003  MEMB      158             0.0000000000
     18392       158  OSM       O11            24.8451569980      -19.8147312670      -21.1920161061  MEMB      158             0.0000000000
     18393       158  OSM       O12            25.0890782946      -22.0167687533      -22.1405012054  MEMB      158             0.0000000000
     18394       158  OSM       C1S            25.2586933798      -18.5536846990      -20.6872508579  MEMB      158             0.0000000000
     18395       158  OSM       H1S            24.5686699258      -17.7662632522      -21.0561478351  MEMB      158             0.0000000000
     18396       158  OSM       H1T            26.2774966386      -18.2549314925      -21.0445867777  MEMB      158             0.0000000000
     18397       158  OSM       NF             25.8715277246      -19.6548854471      -18.5033183178  MEMB      158             0.0000000000
     18398       158  OSM       HNF            25.3151144146      -20.2437192492      -17.9404040491  MEMB      158             0.0000000000
     18399       158  OSM       C2S            25.1618252837      -18.5789925722      -19.1253623356  MEMB      158             0.0000000000
     18400       158  OSM       H2S            25.5831005745      -17.6111147253      -18.7526854251  MEMB      158             0.0000000000
     18401       158  OSM       C3S            23.7138224105      -18.6410354050      -18.6252732892  MEMB      158             0.0000000000
     18402       158  OSM       H3S            23.1933803748      -19.5656048316      -18.9386064424  MEMB      158             0.0000000000
     18403       158  OSM       O3             22.9609393222      -17.5877554186      -19.1595040669  MEMB      158             0.0000000000
     18404       158  OSM       HO3            23.5940234079      -17.1281753258      -19.7257561846  MEMB      158             0.0000000000
     18405       158  OSM       C4S            23.7325181113      -18.5780970662      -17.1109076357  MEMB      158             0.0000000000
     18406       158  OSM       H4S            24.5013635916      -17.8847881735      -16.7413431522  MEMB      158             0.0000000000
     18407       158  OSM       C5S            23.0056149235      -19.2852970538      -16.2224840206  MEMB      158             0.0000000000
     18408       158  OSM       H5S            22.2780509542      -20.0253439804      -16.5880914015  MEMB      158             0.0000000000
     18409       158  OSM       C6S            23.0798353079      -19.1858224291      -14.7169106438  MEMB      158             0.0000000000
     18410       158  OSM       H6S            23.2326580109      -20.1887866406      -14.2704702579  MEMB      158             0.0000000000
     18411       158  OSM       H6T            22.0929641774      -18.8602220916      -14.3138956741  MEMB      158             0.0000000000
     18412       158  OSM       C7S            24.1876044031      -18.3426632735      -14.0696146527  MEMB      158             0.0000000000
     18413       158  OSM       H7S            24.0995068345      -17.2869819316      -14.4041319224  MEMB      158             0.0000000000
     18414       158  OSM       H7T            25.2065383480      -18.5864103415      -14.3989181701  MEMB      158             0.0000000000
     18415       158  OSM       C8S            24.1965335370      -18.5516132342      -12.5364428777  MEMB      158             0.0000000000
     18416       158  OSM       H8S            24.7946154559      -17.6770693489      -12.1555115650  MEMB      158             0.0000000000
     18417       158  OSM       H8T            24.7516789161      -19.4449917275      -12.2304525695  MEMB      158             0.0000000000
     18418       158  OSM       C9S            22.7871375510      -18.7433496134      -11.8668200715  MEMB      158             0.0000000000
     18419       158  OSM       H9S            22.3244330292      -19.6775257868      -12.1450360904  MEMB      158             0.0000000000
     18420       158  OSM       H9T            21.9380379361      -18.1383505630      -12.1862488343  MEMB      158             0.0000000000
     18421       158  OSM       C10S           22.8697890189      -18.6013854336      -10.3839533472  MEMB      158             0.0000000000
     18422       158  OSM       H10S           21.9156139354      -18.2214745777       -9.9106574273  MEMB      158             0.0000000000
     18423       158  OSM       H10T           23.7522105911      -17.9164669605      -10.2834345084  MEMB      158             0.0000000000
     18424       158  OSM       C11S           23.3685806053      -19.8418966328       -9.7484693192  MEMB      158             0.0000000000
     18425       158  OSM       H11S           24.3712790775      -19.9699587552      -10.2138678331  MEMB      158             0.0000000000
     18426       158  OSM       H11T           22.6586552249      -20.5940268511      -10.1390989651  MEMB      158             0.0000000000
     18427       158  OSM       C12S           23.5679524637      -19.7400762556       -8.2294702311  MEMB      158             0.0000000000
     18428       158  OSM       H12S           24.1854157662      -18.8307299624       -8.0414877375  MEMB      158             0.0000000000
     18429       158  OSM       H12T           24.1386415414      -20.6326584977       -7.8959649145  MEMB      158             0.0000000000
     18430       158  OSM       C13S           22.2614168646      -19.5532545366       -7.4391521275  MEMB      158             0.0000000000
     18431       158  OSM       H13S           21.5154568220      -20.2291277523       -7.9086400317  MEMB      158             0.0000000000
     18432       158  OSM       H13T           21.9554503695      -18.5016723607       -7.6379024023  MEMB      158             0.0000000000
     18433       158  OSM       C14S           22.3194501222      -19.7847011835       -5.9045973350  MEMB      158             0.0000000000
     18434       158  OSM       H14S           23.1324017733      -19.1826176430       -5.4395599526  MEMB      158             0.0000000000
     18435       158  OSM       H14T           22.5476449092      -20.8518973791       -5.6946895824  MEMB      158             0.0000000000
     18436       158  OSM       C15S           21.0258664024      -19.4172816900       -5.1431706759  MEMB      158             0.0000000000
     18437       158  OSM       H15S           20.1784841058      -20.0688936864       -5.4464489608  MEMB      158             0.0000000000
     18438       158  OSM       H15T           20.7158724858      -18.3748600329       -5.3743360643  MEMB      158             0.0000000000
     18439       158  OSM       C16S           21.1758669210      -19.5006928591       -3.6171743727  MEMB      158             0.0000000000
     18440       158  OSM       H16S           21.9142678460      -20.2879017070       -3.3307078106  MEMB      158             0.0000000000
     18441       158  OSM       H16T           20.1961854463      -19.8778307337       -3.2369297431  MEMB      158             0.0000000000
     18442       158  OSM       C17S           21.5191875917      -18.0915094177       -3.0211150525  MEMB      158             0.0000000000
     18443       158  OSM       H17S           20.7372278549      -17.3975529025       -3.3998947413  MEMB      158             0.0000000000
     18444       158  OSM       H17T           22.5408568987      -17.8328316255       -3.3540658539  MEMB      158             0.0000000000
     18445       158  OSM       C18S           21.5183172717      -17.8087918087       -1.5207275105  MEMB      158             0.0000000000
     18446       158  OSM       H18S           20.4690581631      -18.0344969133       -1.2435922571  MEMB      158             0.0000000000
     18447       158  OSM       H18T           21.5888876781      -16.8031553830       -1.1105544142  MEMB      158             0.0000000000
     18448       158  OSM       H18U           22.2826437768      -18.4703837649       -1.0300537839  MEMB      158             0.0000000000
     18449       158  OSM       C1F            27.1617309572      -19.8229096650      -18.5861377134  MEMB      158             0.0000000000
     18450       158  OSM       OF             27.8267785912      -19.2454705696      -19.4017045040  MEMB      158             0.0000000000
     18451       158  OSM       C2F            27.7669496646      -20.6951856060      -17.5619062041  MEMB      158             0.0000000000
     18452       158  OSM       H2F            26.9424042583      -21.2014689513      -17.0284922089  MEMB      158             0.0000000000
     18453       158  OSM       H2G            28.3226826168      -20.0936533975      -16.8058774207  MEMB      158             0.0000000000
     18454       158  OSM       C3F            28.6858427345      -21.7140957418      -18.2279761973  MEMB      158             0.0000000000
     18455       158  OSM       H3F            29.5921998972      -21.1891130583      -18.6265074584  MEMB      158             0.0000000000
     18456       158  OSM       H3G            28.2139895425      -22.3129950793      -19.0269533662  MEMB      158             0.0000000000
     18457       158  OSM       C4F            29.2077477930      -22.6859724209      -17.2304664892  MEMB      158             0.0000000000
     18458       158  OSM       H4F            29.5737576448      -22.0621094124      -16.4122425281  MEMB      158             0.0000000000
     18459       158  OSM       H4G            30.1472209165      -23.0707242139      -17.6507355012  MEMB      158             0.0000000000
     18460       158  OSM       C5F            28.3892092977      -23.9492615843      -16.8928189939  MEMB      158             0.0000000000
     18461       158  OSM       H5F            29.1483680917      -24.6295589648      -16.5275686726  MEMB      158             0.0000000000
     18462       158  OSM       H5G            28.0336869676      -24.5562269855      -17.7325150166  MEMB      158             0.0000000000
     18463       158  OSM       C6F            27.3023398124      -23.7684774163      -15.8345227867  MEMB      158             0.0000000000
     18464       158  OSM       H6F            26.4846006817      -23.4538336126      -16.4797144704  MEMB      158             0.0000000000
     18465       158  OSM       H6G            27.6466479514      -23.0060694628      -15.0955590697  MEMB      158             0.0000000000
     18466       158  OSM       C7F            26.6290197222      -25.0142816041      -15.2272191761  MEMB      158             0.0000000000
     18467       158  OSM       H7F            27.2348991369      -25.4132719889      -14.5372145676  MEMB      158             0.0000000000
     18468       158  OSM       H7G            26.6637261763      -25.8892566711      -15.8767952320  MEMB      158             0.0000000000
     18469       158  OSM       C8F            25.7423707954      -24.9425369674      -13.9664742520  MEMB      158             0.0000000000
     18470       158  OSM       H8F            24.8417204399      -24.6333322971      -14.4644573576  MEMB      158             0.0000000000
     18471       158  OSM       H8G            26.1682299516      -24.1189233091      -13.3198719390  MEMB      158             0.0000000000
     18472       158  OSM       C9F            25.5045831865      -26.2593073266      -13.2105026998  MEMB      158             0.0000000000
     18473       158  OSM       H9F            24.9921553144      -27.0907678533      -13.6517709888  MEMB      158             0.0000000000
     18474       158  OSM       C10F           25.8646424031      -26.4569738257      -11.9866488394  MEMB      158             0.0000000000
     18475       158  OSM       H10F           25.8175653469      -27.4112545679      -11.4170639215  MEMB      158             0.0000000000
     18476       158  OSM       C11F           26.5240261824      -25.3439984727      -11.2994254939  MEMB      158             0.0000000000
     18477       158  OSM       H11F           26.5352879931      -24.2703210371      -11.4300125349  MEMB      158             0.0000000000
     18478       158  OSM       H11G           27.4842152213      -25.5025467965      -11.4774503077  MEMB      158             0.0000000000
     18479       158  OSM       C12F           26.3383564733      -25.4443776612       -9.9902040531  MEMB      158             0.0000000000
     18480       158  OSM       H12F           26.6219174296      -26.5305924386       -9.5977178643  MEMB      158             0.0000000000
     18481       158  OSM       H12G           25.2199492741      -25.8551901484       -9.9613163852  MEMB      158             0.0000000000
     18482       158  OSM       C13F           26.8740740406      -23.9201639657       -8.9165122621  MEMB      158             0.0000000000
     18483       158  OSM       H13F           26.5875133770      -22.9742181878       -9.1640376307  MEMB      158             0.0000000000
     18484       158  OSM       H13G           27.9476218516      -23.9399655582       -9.1157320836  MEMB      158             0.0000000000
     18485       158  OSM       C14F           26.5949220813      -23.6002946279       -6.9688765355  MEMB      158             0.0000000000
     18486       158  OSM       H14F           26.5372679762      -24.5740757213       -6.2447790612  MEMB      158             0.0000000000
     18487       158  OSM       H14G           25.5784879155      -23.5596463384       -6.6110252266  MEMB      158             0.0000000000
     18488       158  OSM       C15F           27.5353458395      -23.3981078589       -5.7955740645  MEMB      158             0.0000000000
     18489       158  OSM       H15F           27.2796660185      -22.3536862901       -5.9545754599  MEMB      158             0.0000000000
     18490       158  OSM       H15G           28.5659029837      -23.7418085954       -5.9109356262  MEMB      158             0.0000000000
     18491       158  OSM       C16F           27.2507261680      -24.0373269229       -4.4230907556  MEMB      158             0.0000000000
     18492       158  OSM       H16F           27.5037398257      -25.1308550687       -4.3313488710  MEMB      158             0.0000000000
     18493       158  OSM       H16G           26.2051922273      -23.9354894853       -4.2277469044  MEMB      158             0.0000000000
     18494       158  OSM       C17F           28.0304739355      -23.1320791853       -3.5748779761  MEMB      158             0.0000000000
     18495       158  OSM       H17F           27.7650094544      -22.0889598512       -3.8829339713  MEMB      158             0.0000000000
     18496       158  OSM       H17G           29.0791659773      -23.3427538097       -3.8391521202  MEMB      158             0.0000000000
     18497       158  OSM       C18F           27.7586719709      -23.3496341154       -2.1400348295  MEMB      158             0.0000000000
     18498       158  OSM       H18F           26.7359468741      -22.9890054223       -1.9445189989  MEMB      158             0.0000000000
     18499       158  OSM       H18G           28.4674528840      -22.7369593802       -1.5636829566  MEMB      158             0.0000000000
     18500       158  OSM       H18H           27.8575084151      -24.4180188433       -1.8716891328  MEMB      158             0.0000000000
     18501       159  OSM       N             -34.5469620691        0.6835623400      -22.7302924319  MEMB      159             0.0000000000
     18502       159  OSM       C15           -35.8494452309        1.3834925432      -22.5270172024  MEMB      159             0.0000000000
     18503       159  OSM       H15A          -35.9240916890        2.3147564341      -23.0578720125  MEMB      159             0.0000000000
     18504       159  OSM       H15B          -35.8798319932        1.6232741618      -21.4603513931  MEMB      159             0.0000000000
     18505       159  OSM       H15C          -36.6918007820        0.7256718057      -22.7407192621  MEMB      159             0.0000000000
     18506       159  OSM       C14           -34.5713743111       -0.5969838273      -21.9434216212  MEMB      159             0.0000000000
     18507       159  OSM       H14A          -35.0352084697       -1.4005645667      -22.4850205080  MEMB      159             0.0000000000
     18508       159  OSM       H14B          -35.0627344317       -0.4897040992      -20.9749386825  MEMB      159             0.0000000000
     18509       159  OSM       H14C          -33.5562953303       -0.9218747331      -21.6989659389  MEMB      159             0.0000000000
     18510       159  OSM       C13           -34.3194370886        0.3874135983      -24.1586810134  MEMB      159             0.0000000000
     18511       159  OSM       H13A          -35.2617582558        0.1029330773      -24.6081998438  MEMB      159             0.0000000000
     18512       159  OSM       H13B          -33.5629285856       -0.3930624195      -24.2763705337  MEMB      159             0.0000000000
     18513       159  OSM       H13C          -33.9044234616        1.2676485312      -24.6103989288  MEMB      159             0.0000000000
     18514       159  OSM       C12           -33.3837431886        1.5326753486      -22.2501969136  MEMB      159             0.0000000000
     18515       159  OSM       H12A          -33.1249969057        2.2274840147      -23.0287065530  MEMB      159             0.0000000000
     18516       159  OSM       H12B          -32.5137152482        0.8786284864      -22.1015586967  MEMB      159             0.0000000000
     18517       159  OSM       C11           -33.5737732725        2.3535310448      -20.9617982744  MEMB      159             0.0000000000
     18518       159  OSM       H11A          -34.5393820248        2.8803749936      -20.9195463272  MEMB      159             0.0000000000
     18519       159  OSM       H11B          -32.7901006829        3.1503692325      -20.9185770130  MEMB      159             0.0000000000
     18520       159  OSM       P             -32.1143130586        1.0041496213      -19.3714462500  MEMB      159             0.0000000000
     18521       159  OSM       O13           -31.9532371764       -0.3962964175      -19.8072610083  MEMB      159             0.0000000000
     18522       159  OSM       O14           -31.1226856058        1.9712024589      -19.8699564035  MEMB      159             0.0000000000
     18523       159  OSM       O11           -32.2194461870        1.1839801495      -17.8163689691  MEMB      159             0.0000000000
     18524       159  OSM       O12           -33.5419311979        1.5079866452      -19.8369076797  MEMB      159             0.0000000000
     18525       159  OSM       C1S           -33.1539739060        0.6361396774      -16.9068573252  MEMB      159             0.0000000000
     18526       159  OSM       H1S           -33.1244100061       -0.4773013690      -16.8696055022  MEMB      159             0.0000000000
     18527       159  OSM       H1T           -34.1927303880        0.9220572287      -17.1889152550  MEMB      159             0.0000000000
     18528       159  OSM       NF            -31.9731182145        0.3396252951      -14.7442340905  MEMB      159             0.0000000000
     18529       159  OSM       HNF           -32.4688116362       -0.0543106873      -13.9876471139  MEMB      159             0.0000000000
     18530       159  OSM       C2S           -32.7824240708        1.2186226303      -15.5182792893  MEMB      159             0.0000000000
     18531       159  OSM       H2S           -32.2186225766        2.1674498224      -15.6955270444  MEMB      159             0.0000000000
     18532       159  OSM       C3S           -34.0247906117        1.5098612611      -14.6703599212  MEMB      159             0.0000000000
     18533       159  OSM       H3S           -34.5260516585        0.5253558227      -14.4961639940  MEMB      159             0.0000000000
     18534       159  OSM       O3            -34.9154988653        2.4149119321      -15.3009729200  MEMB      159             0.0000000000
     18535       159  OSM       HO3           -34.4263036885        2.6577921232      -16.0888869655  MEMB      159             0.0000000000
     18536       159  OSM       C4S           -33.5973496966        2.0746697360      -13.3297781497  MEMB      159             0.0000000000
     18537       159  OSM       H4S           -33.9795202353        1.5324285373      -12.4570434875  MEMB      159             0.0000000000
     18538       159  OSM       C5S           -32.7290533641        3.0847636129      -13.1152650462  MEMB      159             0.0000000000
     18539       159  OSM       H5S           -32.1615193965        3.5181389512      -13.9543969332  MEMB      159             0.0000000000
     18540       159  OSM       C6S           -32.3463276679        3.5845597202      -11.7532337595  MEMB      159             0.0000000000
     18541       159  OSM       H6S           -32.0464926791        4.6580086933      -11.8053322270  MEMB      159             0.0000000000
     18542       159  OSM       H6T           -31.4770203471        2.9905707452      -11.3923531536  MEMB      159             0.0000000000
     18543       159  OSM       C7S           -33.4407673511        3.4800842517      -10.6795878492  MEMB      159             0.0000000000
     18544       159  OSM       H7S           -33.8674083205        2.4536539730      -10.6153588286  MEMB      159             0.0000000000
     18545       159  OSM       H7T           -34.2437097036        4.1839126881      -10.9852090794  MEMB      159             0.0000000000
     18546       159  OSM       C8S           -32.8857675003        3.7620539018       -9.2809000422  MEMB      159             0.0000000000
     18547       159  OSM       H8S           -32.6974430623        4.8428674255       -9.1190738907  MEMB      159             0.0000000000
     18548       159  OSM       H8T           -31.8803907035        3.2758946053       -9.2242776133  MEMB      159             0.0000000000
     18549       159  OSM       C9S           -33.7644193645        3.2439117347       -8.1220590627  MEMB      159             0.0000000000
     18550       159  OSM       H9S           -33.9806291046        2.1631272358       -8.2468834209  MEMB      159             0.0000000000
     18551       159  OSM       H9T           -34.7427698689        3.7756049202       -8.0810848581  MEMB      159             0.0000000000
     18552       159  OSM       C10S          -32.9969678297        3.4729210520       -6.8156102636  MEMB      159             0.0000000000
     18553       159  OSM       H10S          -32.7801642841        4.5643807653       -6.7999235747  MEMB      159             0.0000000000
     18554       159  OSM       H10T          -32.0213448666        2.9429639094       -6.8644996644  MEMB      159             0.0000000000
     18555       159  OSM       C11S          -33.7021149750        3.1470100753       -5.4911664130  MEMB      159             0.0000000000
     18556       159  OSM       H11S          -34.6321692495        3.7530276312       -5.4205624345  MEMB      159             0.0000000000
     18557       159  OSM       H11T          -32.9985543384        3.4673871178       -4.6860556996  MEMB      159             0.0000000000
     18558       159  OSM       C12S          -33.9922583725        1.6642739916       -5.2113545561  MEMB      159             0.0000000000
     18559       159  OSM       H12S          -33.0229712044        1.1250185784       -5.2136781916  MEMB      159             0.0000000000
     18560       159  OSM       H12T          -34.6380338259        1.2438119032       -6.0145026343  MEMB      159             0.0000000000
     18561       159  OSM       C13S          -34.6942368756        1.4648963420       -3.8628184446  MEMB      159             0.0000000000
     18562       159  OSM       H13S          -34.9729594475        0.4002263374       -3.6563664425  MEMB      159             0.0000000000
     18563       159  OSM       H13T          -35.6273602031        2.0670545259       -3.9363827711  MEMB      159             0.0000000000
     18564       159  OSM       C14S          -33.8740486621        1.8348920776       -2.6321670975  MEMB      159             0.0000000000
     18565       159  OSM       H14S          -33.2936169099        2.7632709218       -2.7815375338  MEMB      159             0.0000000000
     18566       159  OSM       H14T          -33.1849353817        0.9884499869       -2.4898774224  MEMB      159             0.0000000000
     18567       159  OSM       C15S          -34.6986217595        1.9868487880       -1.3720431528  MEMB      159             0.0000000000
     18568       159  OSM       H15S          -35.2851853309        1.0823249483       -1.1207078703  MEMB      159             0.0000000000
     18569       159  OSM       H15T          -35.3819054317        2.8626387328       -1.5016376231  MEMB      159             0.0000000000
     18570       159  OSM       C16S          -33.9079048524        2.2807142813       -0.1453912951  MEMB      159             0.0000000000
     18571       159  OSM       H16S          -33.1436225056        3.0392007884       -0.4225603313  MEMB      159             0.0000000000
     18572       159  OSM       H16T          -33.3794123730        1.3948457705        0.2724855388  MEMB      159             0.0000000000
     18573       159  OSM       C17S          -34.9509621539        2.7930317447        0.8254846845  MEMB      159             0.0000000000
     18574       159  OSM       H17S          -35.6959427665        2.0309653051        1.0713439051  MEMB      159             0.0000000000
     18575       159  OSM       H17T          -35.4312230922        3.7383255649        0.4758213160  MEMB      159             0.0000000000
     18576       159  OSM       C18S          -34.3152209192        3.0597473614        2.0760738637  MEMB      159             0.0000000000
     18577       159  OSM       H18S          -33.4232960029        3.5435870477        1.6951422294  MEMB      159             0.0000000000
     18578       159  OSM       H18T          -33.9105869940        2.1792545062        2.6303864033  MEMB      159             0.0000000000
     18579       159  OSM       H18U          -34.8587293226        3.7980022965        2.7159053402  MEMB      159             0.0000000000
     18580       159  OSM       C1F           -30.7007952532        0.0357308709      -14.9406538592  MEMB      159             0.0000000000
     18581       159  OSM       OF            -29.9160195516        0.7230269737      -15.5811898584  MEMB      159             0.0000000000
     18582       159  OSM       C2F           -30.2804713646       -1.1522465705      -14.1568968243  MEMB      159             0.0000000000
     18583       159  OSM       H2F           -29.8473628535       -1.9376385562      -14.8145499777  MEMB      159             0.0000000000
     18584       159  OSM       H2G           -31.1991110087       -1.6028222690      -13.7182055775  MEMB      159             0.0000000000
     18585       159  OSM       C3F           -29.2068948415       -0.7277356706      -13.1178748062  MEMB      159             0.0000000000
     18586       159  OSM       H3F           -28.3810560579       -0.1893925625      -13.6286673336  MEMB      159             0.0000000000
     18587       159  OSM       H3G           -28.7857457804       -1.6883840979      -12.7489574097  MEMB      159             0.0000000000
     18588       159  OSM       C4F           -29.6329867905        0.1189553962      -11.8845743624  MEMB      159             0.0000000000
     18589       159  OSM       H4F           -29.9506583459        1.1466313369      -12.0960255364  MEMB      159             0.0000000000
     18590       159  OSM       H4G           -28.7508726098        0.1423066650      -11.1962005343  MEMB      159             0.0000000000
     18591       159  OSM       C5F           -30.7540715416       -0.5716159880      -11.1460910962  MEMB      159             0.0000000000
     18592       159  OSM       H5F           -30.0762881086       -1.4469727480      -11.0471671031  MEMB      159             0.0000000000
     18593       159  OSM       H5G           -31.6366186752       -0.7266028233      -11.8095605117  MEMB      159             0.0000000000
     18594       159  OSM       C6F           -31.1005322139       -0.2377935588       -9.6841535554  MEMB      159             0.0000000000
     18595       159  OSM       H6F           -31.3902499863        0.8183089872       -9.6031229593  MEMB      159             0.0000000000
     18596       159  OSM       H6G           -30.1874308961       -0.4752366189       -9.0933762835  MEMB      159             0.0000000000
     18597       159  OSM       C7F           -32.1925141872       -1.0796790115       -9.0120758422  MEMB      159             0.0000000000
     18598       159  OSM       H7F           -31.7129634349       -2.0629902657       -8.8373638709  MEMB      159             0.0000000000
     18599       159  OSM       H7G           -33.1213462181       -1.0938626850       -9.6320512491  MEMB      159             0.0000000000
     18600       159  OSM       C8F           -32.6796908820       -0.7094551056       -7.6330461956  MEMB      159             0.0000000000
     18601       159  OSM       H8F           -32.8023766913        0.3742043157       -7.7268606456  MEMB      159             0.0000000000
     18602       159  OSM       H8G           -31.8433377336       -0.9400882609       -6.9284504013  MEMB      159             0.0000000000
     18603       159  OSM       C9F           -34.0368737355       -1.2926483721       -7.2737518426  MEMB      159             0.0000000000
     18604       159  OSM       H9F           -34.8765481088       -1.0665787435       -7.9300893929  MEMB      159             0.0000000000
     18605       159  OSM       C10F          -34.2738828173       -2.1402730789       -6.2895615264  MEMB      159             0.0000000000
     18606       159  OSM       H10F          -35.2288555487       -2.6962669206       -6.1871114538  MEMB      159             0.0000000000
     18607       159  OSM       C11F          -33.1756094521       -2.6162710802       -5.4516871431  MEMB      159             0.0000000000
     18608       159  OSM       H11F          -32.1069804528       -2.4756741505       -5.7607235824  MEMB      159             0.0000000000
     18609       159  OSM       H11G          -33.4637497223       -3.5220321313       -5.9683033422  MEMB      159             0.0000000000
     18610       159  OSM       C12F          -33.3142906018       -2.8691992890       -3.9572495284  MEMB      159             0.0000000000
     18611       159  OSM       H12F          -32.7207110820       -3.6952498065       -3.5192088972  MEMB      159             0.0000000000
     18612       159  OSM       H12G          -34.3515840415       -3.1622645553       -3.7484833850  MEMB      159             0.0000000000
     18613       159  OSM       C13F          -32.7102290344       -1.7382150568       -3.2216717800  MEMB      159             0.0000000000
     18614       159  OSM       H13F          -33.0652903617       -0.8408919279       -3.7441472154  MEMB      159             0.0000000000
     18615       159  OSM       H13G          -31.6218886613       -1.8112132788       -3.3705280435  MEMB      159             0.0000000000
     18616       159  OSM       C14F          -33.1219973015       -1.8243404261       -1.7705571234  MEMB      159             0.0000000000
     18617       159  OSM       H14F          -33.0614490723       -2.9027533570       -1.4561993053  MEMB      159             0.0000000000
     18618       159  OSM       H14G          -34.1757893041       -1.5257883926       -1.6943353910  MEMB      159             0.0000000000
     18619       159  OSM       C15F          -32.3430076462       -0.8814022917       -0.8574634640  MEMB      159             0.0000000000
     18620       159  OSM       H15F          -32.3797994023        0.1878824649       -0.9873354827  MEMB      159             0.0000000000
     18621       159  OSM       H15G          -31.3582338548       -0.8445862044       -1.3210833558  MEMB      159             0.0000000000
     18622       159  OSM       C16F          -32.5051050430       -1.3219425067        0.6177317363  MEMB      159             0.0000000000
     18623       159  OSM       H16F          -32.3496370557       -2.4217213693        0.7149884519  MEMB      159             0.0000000000
     18624       159  OSM       H16G          -33.5780876283       -1.1430601804        0.8489065639  MEMB      159             0.0000000000
     18625       159  OSM       C17F          -31.6557799490       -0.5669384617        1.6647859600  MEMB      159             0.0000000000
     18626       159  OSM       H17F          -31.9430536047        0.4927483406        1.5856664367  MEMB      159             0.0000000000
     18627       159  OSM       H17G          -30.5720444483       -0.5002933542        1.4624355914  MEMB      159             0.0000000000
     18628       159  OSM       C18F          -31.7557005237       -1.1089092436        3.0979729560  MEMB      159             0.0000000000
     18629       159  OSM       H18F          -32.7885505768       -1.4017207721        3.3801236827  MEMB      159             0.0000000000
     18630       159  OSM       H18G          -31.4255355521       -0.3274850607        3.8098338930  MEMB      159             0.0000000000
     18631       159  OSM       H18H          -31.0703718823       -1.9789304478        3.2254542044  MEMB      159             0.0000000000
     18632       160  CHL1      C3            -25.6939504277       21.5785121195      -17.2743392520  MEMB      160             0.0000000000
     18633       160  CHL1      H3            -25.7285365168       20.5467560199      -16.8513716499  MEMB      160             0.0000000000
     18634       160  CHL1      O3            -25.4858890558       21.4978813167      -18.6741191342  MEMB      160             0.0000000000
     18635       160  CHL1      H3'           -24.5848114880       21.1538801872      -18.8144158624  MEMB      160             0.0000000000
     18636       160  CHL1      C4            -27.0488915784       22.2392264696      -17.0166061843  MEMB      160             0.0000000000
     18637       160  CHL1      H4A           -27.0033713743       23.2644962325      -17.4461524824  MEMB      160             0.0000000000
     18638       160  CHL1      H4B           -27.8631117236       21.6894057295      -17.5255065769  MEMB      160             0.0000000000
     18639       160  CHL1      C5            -27.2764993445       22.2180396577      -15.5338996934  MEMB      160             0.0000000000
     18640       160  CHL1      C6            -28.1735441265       21.4567489914      -14.9369385503  MEMB      160             0.0000000000
     18641       160  CHL1      H6            -28.8409453494       20.7957258618      -15.5014741375  MEMB      160             0.0000000000
     18642       160  CHL1      C7            -28.2729966780       21.4677499775      -13.4624671034  MEMB      160             0.0000000000
     18643       160  CHL1      H7A           -29.2797090775       21.6716344701      -13.2473685037  MEMB      160             0.0000000000
     18644       160  CHL1      H7B           -27.9146435630       20.5154452509      -13.0295641868  MEMB      160             0.0000000000
     18645       160  CHL1      C8            -27.7100942633       22.6721857091      -12.7125864252  MEMB      160             0.0000000000
     18646       160  CHL1      H8            -28.4416796225       23.5130098916      -12.8142643164  MEMB      160             0.0000000000
     18647       160  CHL1      C14           -27.3516049895       22.4204377734      -11.2559842390  MEMB      160             0.0000000000
     18648       160  CHL1      H14           -26.7307550915       21.4910911854      -11.1252816948  MEMB      160             0.0000000000
     18649       160  CHL1      C15           -28.2656295820       21.7189008184      -10.6171526698  MEMB      160             0.0000000000
     18650       160  CHL1      H15A          -29.1308418353       22.1891820026      -11.2404364662  MEMB      160             0.0000000000
     18651       160  CHL1      H15B          -28.6493043302       20.7725463864      -10.9968581131  MEMB      160             0.0000000000
     18652       160  CHL1      C16           -27.8511689099       21.9226341772       -8.9792430559  MEMB      160             0.0000000000
     18653       160  CHL1      H16A          -28.5876021208       22.3683531787       -8.2226069043  MEMB      160             0.0000000000
     18654       160  CHL1      H16B          -27.9821379542       21.1341454371       -8.2204169579  MEMB      160             0.0000000000
     18655       160  CHL1      C17           -26.9148918967       22.9765161985       -8.8429958923  MEMB      160             0.0000000000
     18656       160  CHL1      H17           -26.1422165935       22.2009954863       -8.6269906715  MEMB      160             0.0000000000
     18657       160  CHL1      C13           -26.9180429737       23.5470365383      -10.2730139194  MEMB      160             0.0000000000
     18658       160  CHL1      C18           -27.5312453465       24.9771753837      -10.4386173037  MEMB      160             0.0000000000
     18659       160  CHL1      H18A          -27.8797175091       25.0629838787      -11.4747201730  MEMB      160             0.0000000000
     18660       160  CHL1      H18B          -28.4844335672       25.3667872654      -10.1692410603  MEMB      160             0.0000000000
     18661       160  CHL1      H18C          -27.0173894198       25.7940550981       -9.9069515508  MEMB      160             0.0000000000
     18662       160  CHL1      C12           -25.5724964454       23.5971596449      -10.7937562501  MEMB      160             0.0000000000
     18663       160  CHL1      H12A          -25.0305290523       24.4230202195      -10.2983799722  MEMB      160             0.0000000000
     18664       160  CHL1      H12B          -25.0736434646       22.6190242298      -10.6313986201  MEMB      160             0.0000000000
     18665       160  CHL1      C11           -25.6838086771       23.7301967613      -12.2999719202  MEMB      160             0.0000000000
     18666       160  CHL1      H11A          -26.2513828660       24.6203475909      -12.5979545669  MEMB      160             0.0000000000
     18667       160  CHL1      H11B          -24.6247486094       23.6609995985      -12.5210555199  MEMB      160             0.0000000000
     18668       160  CHL1      C9            -26.3916892726       22.7805472175      -13.2078359408  MEMB      160             0.0000000000
     18669       160  CHL1      H9            -25.9469181692       21.7886422550      -12.9629599505  MEMB      160             0.0000000000
     18670       160  CHL1      C10           -26.2915684444       23.0123388405      -14.7310052475  MEMB      160             0.0000000000
     18671       160  CHL1      C19           -26.5929166636       24.4367349156      -15.1325633959  MEMB      160             0.0000000000
     18672       160  CHL1      H19A          -25.8890011781       25.0948097521      -14.6604617642  MEMB      160             0.0000000000
     18673       160  CHL1      H19B          -26.7208755836       24.7229110655      -16.1783365631  MEMB      160             0.0000000000
     18674       160  CHL1      H19C          -27.5922356410       24.6839461043      -14.8595300235  MEMB      160             0.0000000000
     18675       160  CHL1      C1            -24.8731030549       22.5998858241      -15.1096958014  MEMB      160             0.0000000000
     18676       160  CHL1      H1A           -24.1496850005       23.3258148661      -14.7229501981  MEMB      160             0.0000000000
     18677       160  CHL1      H1B           -24.7044218036       21.6570165995      -14.5485840324  MEMB      160             0.0000000000
     18678       160  CHL1      C2            -24.5836913944       22.4056990477      -16.6022587486  MEMB      160             0.0000000000
     18679       160  CHL1      H2A           -23.5907610030       21.9165961920      -16.6557813599  MEMB      160             0.0000000000
     18680       160  CHL1      H2B           -24.4765510986       23.3912740132      -17.1093174325  MEMB      160             0.0000000000
     18681       160  CHL1      C20           -27.2069062527       23.8555983859       -7.6391232155  MEMB      160             0.0000000000
     18682       160  CHL1      H20           -28.0635190676       24.6031657084       -7.7088046208  MEMB      160             0.0000000000
     18683       160  CHL1      C21           -25.9363722359       24.5364149750       -7.7525269800  MEMB      160             0.0000000000
     18684       160  CHL1      H21A          -25.7038257619       25.3345672584       -8.4784860632  MEMB      160             0.0000000000
     18685       160  CHL1      H21B          -25.1344659758       24.0436040810       -7.1889419658  MEMB      160             0.0000000000
     18686       160  CHL1      H21C          -26.4302412920       25.1477172968       -7.0920868291  MEMB      160             0.0000000000
     18687       160  CHL1      C22           -27.3417528735       23.0072175789       -6.2981361616  MEMB      160             0.0000000000
     18688       160  CHL1      H22A          -27.9817746831       22.1656636859       -6.4429652395  MEMB      160             0.0000000000
     18689       160  CHL1      H22B          -26.3624297082       22.6763571712       -6.0197004268  MEMB      160             0.0000000000
     18690       160  CHL1      C23           -27.8979837536       23.4854399087       -4.9653440209  MEMB      160             0.0000000000
     18691       160  CHL1      H23A          -26.9687169192       23.7750595309       -4.4732406248  MEMB      160             0.0000000000
     18692       160  CHL1      H23B          -28.6763583763       24.2483328372       -5.2825037645  MEMB      160             0.0000000000
     18693       160  CHL1      C24           -28.3692472630       22.8475139631       -3.6349644092  MEMB      160             0.0000000000
     18694       160  CHL1      H24A          -29.3293265875       23.1449943347       -4.0439450862  MEMB      160             0.0000000000
     18695       160  CHL1      H24B          -28.5071264084       21.8478835666       -3.5284343183  MEMB      160             0.0000000000
     18696       160  CHL1      C25           -28.9875719062       23.4791915342       -2.3979414917  MEMB      160             0.0000000000
     18697       160  CHL1      H25           -29.7752222590       24.1779216921       -2.8149268419  MEMB      160             0.0000000000
     18698       160  CHL1      C26           -30.2688394446       23.1153168707       -1.9160199295  MEMB      160             0.0000000000
     18699       160  CHL1      H26A          -30.4100959806       23.9978658444       -1.2016605234  MEMB      160             0.0000000000
     18700       160  CHL1      H26B          -31.2060162832       23.0696799985       -2.5097891996  MEMB      160             0.0000000000
     18701       160  CHL1      H26C          -30.0273106311       22.1621519288       -1.4600906724  MEMB      160             0.0000000000
     18702       160  CHL1      C27           -27.9454284499       24.0765463758       -1.3966224680  MEMB      160             0.0000000000
     18703       160  CHL1      H27A          -27.1512291196       23.3532242162       -1.2798935552  MEMB      160             0.0000000000
     18704       160  CHL1      H27B          -27.2810348494       24.8592480249       -1.8242170265  MEMB      160             0.0000000000
     18705       160  CHL1      H27C          -28.3073635860       24.6988484868       -0.5428101317  MEMB      160             0.0000000000
     18706       161  SAPE      N             -32.1257155354       12.8544143735      -22.4937159121  MEMB      161             0.0000000000
     18707       161  SAPE      HN1           -32.7912935257       12.9680275797      -21.7037726865  MEMB      161             0.0000000000
     18708       161  SAPE      HN2           -31.9125863044       13.8191861905      -22.8173984034  MEMB      161             0.0000000000
     18709       161  SAPE      HN3           -32.5353583215       12.2767200729      -23.2632358154  MEMB      161             0.0000000000
     18710       161  SAPE      C12           -30.8404675782       12.2400317462      -21.9829170485  MEMB      161             0.0000000000
     18711       161  SAPE      H12A          -30.0150958095       12.5399740240      -22.6617928170  MEMB      161             0.0000000000
     18712       161  SAPE      H12B          -30.9560451030       11.1483798581      -22.0393959448  MEMB      161             0.0000000000
     18713       161  SAPE      C11           -30.5589240920       12.6313124446      -20.5207159432  MEMB      161             0.0000000000
     18714       161  SAPE      H11A          -29.5551690269       12.2476678115      -20.2050964000  MEMB      161             0.0000000000
     18715       161  SAPE      H11B          -31.3035842233       12.1370096635      -19.8578509669  MEMB      161             0.0000000000
     18716       161  SAPE      P             -30.2479096547       14.7195427416      -18.9567756285  MEMB      161             0.0000000000
     18717       161  SAPE      O13           -28.7786904447       14.5834334016      -18.8635205383  MEMB      161             0.0000000000
     18718       161  SAPE      O14           -30.8844646109       16.0371960525      -18.9257558599  MEMB      161             0.0000000000
     18719       161  SAPE      O12           -30.6546120296       14.0414168243      -20.3692550665  MEMB      161             0.0000000000
     18720       161  SAPE      O11           -30.9142518872       13.7261973157      -17.9397184765  MEMB      161             0.0000000000
     18721       161  SAPE      C1            -32.3086353722       13.5921987132      -17.7413378332  MEMB      161             0.0000000000
     18722       161  SAPE      HA            -32.9179235215       14.2035620191      -18.4444819735  MEMB      161             0.0000000000
     18723       161  SAPE      HB            -32.5680074277       12.5220149413      -17.8665456068  MEMB      161             0.0000000000
     18724       161  SAPE      C2            -32.7405083648       14.0599303038      -16.3454205260  MEMB      161             0.0000000000
     18725       161  SAPE      HS            -32.6730124285       15.1731920456      -16.3277276296  MEMB      161             0.0000000000
     18726       161  SAPE      O21           -31.9023257177       13.4838272664      -15.3278065941  MEMB      161             0.0000000000
     18727       161  SAPE      C21           -30.8767716800       14.2234630231      -14.9166510679  MEMB      161             0.0000000000
     18728       161  SAPE      O22           -30.5492417117       15.3170584130      -15.3111381539  MEMB      161             0.0000000000
     18729       161  SAPE      C22           -30.2872140096       13.5773336732      -13.6919776767  MEMB      161             0.0000000000
     18730       161  SAPE      H2R           -29.3696548773       14.0907182346      -13.3436751121  MEMB      161             0.0000000000
     18731       161  SAPE      H2S           -31.0529547751       13.6698030666      -12.8869174994  MEMB      161             0.0000000000
     18732       161  SAPE      C3            -34.2243169539       13.6764810203      -16.0874774278  MEMB      161             0.0000000000
     18733       161  SAPE      HX            -34.3611744328       12.5731780107      -16.0010006106  MEMB      161             0.0000000000
     18734       161  SAPE      HY            -34.8992118315       13.9800588177      -16.9094292370  MEMB      161             0.0000000000
     18735       161  SAPE      O31           -34.6357073354       14.3967209420      -14.9337057084  MEMB      161             0.0000000000
     18736       161  SAPE      C31           -34.2542989200       13.8080416854      -13.8450174439  MEMB      161             0.0000000000
     18737       161  SAPE      O32           -34.0349763133       12.6131153339      -13.6752974457  MEMB      161             0.0000000000
     18738       161  SAPE      C32           -34.2464325721       14.8402768250      -12.7542074251  MEMB      161             0.0000000000
     18739       161  SAPE      H2X           -35.3245765497       15.1999159127      -12.7601451291  MEMB      161             0.0000000000
     18740       161  SAPE      H2Y           -33.9993104358       15.8717489583      -12.8971713895  MEMB      161             0.0000000000
     18741       161  SAPE      C23           -29.9671812097       12.1262268035      -14.0002258803  MEMB      161             0.0000000000
     18742       161  SAPE      H3R           -29.2560795166       11.9073075594      -14.8187849414  MEMB      161             0.0000000000
     18743       161  SAPE      H3S           -30.9225605664       11.6275606135      -14.3016533936  MEMB      161             0.0000000000
     18744       161  SAPE      C24           -29.4454988917       11.5116470340      -12.7285838877  MEMB      161             0.0000000000
     18745       161  SAPE      H4R           -29.3718628607       10.4789315913      -13.0193801363  MEMB      161             0.0000000000
     18746       161  SAPE      H4S           -30.2834361454       11.6708895717      -12.0111849181  MEMB      161             0.0000000000
     18747       161  SAPE      C25           -28.0686306174       11.7177445840      -12.1851026508  MEMB      161             0.0000000000
     18748       161  SAPE      H5R           -27.2602376227       11.3637681603      -12.8394786364  MEMB      161             0.0000000000
     18749       161  SAPE      C26           -27.7609431666       12.1693455818      -10.9646741597  MEMB      161             0.0000000000
     18750       161  SAPE      H6R           -26.7007135363       12.2604825524      -10.6979183229  MEMB      161             0.0000000000
     18751       161  SAPE      C27           -28.7139934798       12.5807075351       -9.8773358217  MEMB      161             0.0000000000
     18752       161  SAPE      H7R           -29.6068314221       13.0999742862      -10.2711101491  MEMB      161             0.0000000000
     18753       161  SAPE      H7S           -28.1716359795       13.2123716095       -9.1633702729  MEMB      161             0.0000000000
     18754       161  SAPE      C28           -29.1362957532       11.6257797208       -8.8661423507  MEMB      161             0.0000000000
     18755       161  SAPE      H8R           -28.3782934101       10.8687966392       -8.6235413840  MEMB      161             0.0000000000
     18756       161  SAPE      C29           -30.3045743357       11.6064879475       -8.2159942764  MEMB      161             0.0000000000
     18757       161  SAPE      H9R           -30.4738067135       10.9110174395       -7.4124947357  MEMB      161             0.0000000000
     18758       161  SAPE      C210          -31.5012543345       12.3997105449       -8.2201729888  MEMB      161             0.0000000000
     18759       161  SAPE      H10R          -31.3757954917       12.9999904060       -9.1181127891  MEMB      161             0.0000000000
     18760       161  SAPE      H10S          -31.2633968262       12.9352320391       -7.2817760448  MEMB      161             0.0000000000
     18761       161  SAPE      C211          -32.8796757946       11.7565921277       -8.1839056512  MEMB      161             0.0000000000
     18762       161  SAPE      H11R          -33.2561951445       11.3729890140       -9.1453748534  MEMB      161             0.0000000000
     18763       161  SAPE      C212          -33.7104717783       11.7013413678       -7.1223352695  MEMB      161             0.0000000000
     18764       161  SAPE      H12R          -34.7588548291       11.3826687961       -7.2662886528  MEMB      161             0.0000000000
     18765       161  SAPE      C213          -33.4315562217       12.2638393696       -5.7486132049  MEMB      161             0.0000000000
     18766       161  SAPE      H13R          -32.3590738269       12.2205118963       -5.5054418439  MEMB      161             0.0000000000
     18767       161  SAPE      H13S          -33.9806495833       11.6764438823       -5.0152965309  MEMB      161             0.0000000000
     18768       161  SAPE      C214          -33.8360337746       13.6694473776       -5.5898459639  MEMB      161             0.0000000000
     18769       161  SAPE      H14R          -34.0744086135       13.9866882116       -6.5859193752  MEMB      161             0.0000000000
     18770       161  SAPE      C215          -33.9078706101       14.4621164467       -4.5009145319  MEMB      161             0.0000000000
     18771       161  SAPE      H15R          -34.2933484405       15.4846052729       -4.5573293211  MEMB      161             0.0000000000
     18772       161  SAPE      C216          -33.5701092146       14.0540100200       -3.1121145882  MEMB      161             0.0000000000
     18773       161  SAPE      H16R          -32.6554236165       14.5789678333       -2.7483544713  MEMB      161             0.0000000000
     18774       161  SAPE      H16S          -33.3696357219       12.9670572679       -3.0922183261  MEMB      161             0.0000000000
     18775       161  SAPE      C217          -34.7031673843       14.3990502369       -2.1430848541  MEMB      161             0.0000000000
     18776       161  SAPE      H17R          -35.6911845781       13.9759992167       -2.4177396465  MEMB      161             0.0000000000
     18777       161  SAPE      H17S          -34.8463853302       15.4948413807       -2.1262342128  MEMB      161             0.0000000000
     18778       161  SAPE      C218          -34.3234130886       13.9430462066       -0.7401793320  MEMB      161             0.0000000000
     18779       161  SAPE      H18R          -35.1197583390       14.2887604736       -0.0479537970  MEMB      161             0.0000000000
     18780       161  SAPE      H18S          -33.3584101877       14.4444678777       -0.4889413368  MEMB      161             0.0000000000
     18781       161  SAPE      C219          -34.2266382342       12.4187532397       -0.6107360081  MEMB      161             0.0000000000
     18782       161  SAPE      H19R          -33.4772066649       12.0117166265       -1.3176205292  MEMB      161             0.0000000000
     18783       161  SAPE      H19S          -35.2208123562       12.0104024271       -0.8957623072  MEMB      161             0.0000000000
     18784       161  SAPE      C220          -33.8313258183       11.9399575052        0.7804844570  MEMB      161             0.0000000000
     18785       161  SAPE      H20R          -33.5312871636       10.8654949792        0.7868493112  MEMB      161             0.0000000000
     18786       161  SAPE      H20S          -34.6546314963       12.1105650290        1.5029485325  MEMB      161             0.0000000000
     18787       161  SAPE      H20T          -32.9659448188       12.5492321884        1.1089015728  MEMB      161             0.0000000000
     18788       161  SAPE      C33           -33.7110756372       14.0981251136      -11.4661939368  MEMB      161             0.0000000000
     18789       161  SAPE      H3X           -32.7093235895       13.7494525846      -11.3494897649  MEMB      161             0.0000000000
     18790       161  SAPE      H3Y           -34.1488963045       13.0718119896      -11.2617675911  MEMB      161             0.0000000000
     18791       161  SAPE      C34           -34.0177069451       14.9221308708      -10.2940231262  MEMB      161             0.0000000000
     18792       161  SAPE      H4X           -33.9141248441       14.3886368803       -9.3067846550  MEMB      161             0.0000000000
     18793       161  SAPE      H4Y           -35.0087600474       15.2282740071      -10.7225286381  MEMB      161             0.0000000000
     18794       161  SAPE      C35           -33.9048706611       16.3643035277      -10.0612529183  MEMB      161             0.0000000000
     18795       161  SAPE      H5X           -34.8438497113       16.9353951465       -9.7819020132  MEMB      161             0.0000000000
     18796       161  SAPE      H5Y           -33.6263517668       16.7147783693      -11.0600541109  MEMB      161             0.0000000000
     18797       161  SAPE      C36           -32.8418748528       16.3607982292       -9.0309202895  MEMB      161             0.0000000000
     18798       161  SAPE      H6X           -32.1472853862       15.5240481945       -9.3105182991  MEMB      161             0.0000000000
     18799       161  SAPE      H6Y           -33.1493371741       16.1592646053       -7.9802343232  MEMB      161             0.0000000000
     18800       161  SAPE      C37           -32.2522947476       17.6892462917       -9.2993841786  MEMB      161             0.0000000000
     18801       161  SAPE      H7X           -33.1104098329       18.4026126088       -9.3997938127  MEMB      161             0.0000000000
     18802       161  SAPE      H7Y           -31.7753987089       17.5512325607      -10.3025350081  MEMB      161             0.0000000000
     18803       161  SAPE      C38           -31.2822907608       18.1102335692       -8.2226043222  MEMB      161             0.0000000000
     18804       161  SAPE      H8X           -31.8257701329       18.2440268184       -7.2663482487  MEMB      161             0.0000000000
     18805       161  SAPE      H8Y           -30.9163386346       19.1057049062       -8.4805248216  MEMB      161             0.0000000000
     18806       161  SAPE      C39           -30.1274972177       17.1085993288       -8.0898804776  MEMB      161             0.0000000000
     18807       161  SAPE      H9X           -29.7176625189       16.8922384799       -9.1041091106  MEMB      161             0.0000000000
     18808       161  SAPE      H9Y           -30.5310383181       16.1514789387       -7.6975660290  MEMB      161             0.0000000000
     18809       161  SAPE      C310          -28.9524184915       17.4918059909       -7.1757488672  MEMB      161             0.0000000000
     18810       161  SAPE      H10X          -28.3856654592       18.3558329932       -7.5854255725  MEMB      161             0.0000000000
     18811       161  SAPE      H10Y          -28.2621910409       16.6248276047       -7.1841177493  MEMB      161             0.0000000000
     18812       161  SAPE      C311          -29.2973942732       17.7537028469       -5.7066506892  MEMB      161             0.0000000000
     18813       161  SAPE      H11X          -30.0547037263       18.5443500536       -5.6975611941  MEMB      161             0.0000000000
     18814       161  SAPE      H11Y          -28.3801889979       18.1042468692       -5.1821974579  MEMB      161             0.0000000000
     18815       161  SAPE      C312          -29.9242325159       16.5996740593       -4.9216374059  MEMB      161             0.0000000000
     18816       161  SAPE      H12X          -30.7428947246       16.1520102257       -5.5264335883  MEMB      161             0.0000000000
     18817       161  SAPE      H12Y          -30.3792325029       16.9985201479       -3.9873859091  MEMB      161             0.0000000000
     18818       161  SAPE      C313          -28.9417732147       15.4724282497       -4.6328618404  MEMB      161             0.0000000000
     18819       161  SAPE      H13X          -28.1026815913       15.7835933963       -3.9725840067  MEMB      161             0.0000000000
     18820       161  SAPE      H13Y          -28.5378023624       15.2046176214       -5.6338370776  MEMB      161             0.0000000000
     18821       161  SAPE      C314          -29.6571253715       14.2488620823       -4.0719714601  MEMB      161             0.0000000000
     18822       161  SAPE      H14X          -30.4834418550       13.9944802569       -4.7785185997  MEMB      161             0.0000000000
     18823       161  SAPE      H14Y          -30.0862217404       14.4509868412       -3.0683157511  MEMB      161             0.0000000000
     18824       161  SAPE      C315          -28.7550890560       13.0514704429       -3.8877778246  MEMB      161             0.0000000000
     18825       161  SAPE      H15X          -27.8737839937       13.2610469457       -3.2514373242  MEMB      161             0.0000000000
     18826       161  SAPE      H15Y          -28.3896225981       12.7260053225       -4.9013534087  MEMB      161             0.0000000000
     18827       161  SAPE      C316          -29.4985036079       11.9065677061       -3.2103891240  MEMB      161             0.0000000000
     18828       161  SAPE      H16X          -28.6326507602       11.2042747570       -3.2667970155  MEMB      161             0.0000000000
     18829       161  SAPE      H16Y          -30.3777006110       11.5929622217       -3.8312585234  MEMB      161             0.0000000000
     18830       161  SAPE      C317          -29.7303121336       11.7318859530       -1.6972485338  MEMB      161             0.0000000000
     18831       161  SAPE      H17X          -29.9972542223       12.7257972346       -1.3211871898  MEMB      161             0.0000000000
     18832       161  SAPE      H17Y          -28.7757995872       11.3612450964       -1.2391984489  MEMB      161             0.0000000000
     18833       161  SAPE      C318          -30.9190896716       10.8436551425       -1.2701215942  MEMB      161             0.0000000000
     18834       161  SAPE      H18X          -31.8062953940       11.1601775931       -1.8430307278  MEMB      161             0.0000000000
     18835       161  SAPE      H18Y          -30.9439841759       10.5658632972       -0.2088766054  MEMB      161             0.0000000000
     18836       161  SAPE      H18Z          -30.9780850440        9.7996786328       -1.5108260640  MEMB      161             0.0000000000
     18837       162  CHL1      C3            -26.3554166315      -21.6757639584      -17.2858115614  MEMB      162             0.0000000000
     18838       162  CHL1      H3            -26.5497290147      -20.6228448052      -16.9723304975  MEMB      162             0.0000000000
     18839       162  CHL1      O3            -26.5538758758      -21.7939057608      -18.6789270334  MEMB      162             0.0000000000
     18840       162  CHL1      H3'           -25.9855479791      -21.1184394216      -19.1012635172  MEMB      162             0.0000000000
     18841       162  CHL1      C4            -24.9009012590      -21.9820133298      -17.0290013291  MEMB      162             0.0000000000
     18842       162  CHL1      H4A           -24.5939132506      -22.9613626767      -17.4447653415  MEMB      162             0.0000000000
     18843       162  CHL1      H4B           -24.2996573083      -21.1781261579      -17.5211275728  MEMB      162             0.0000000000
     18844       162  CHL1      C5            -24.6503141917      -22.0017262915      -15.5664144570  MEMB      162             0.0000000000
     18845       162  CHL1      C6            -23.7399709296      -21.1963940492      -15.1048065963  MEMB      162             0.0000000000
     18846       162  CHL1      H6            -23.1856340316      -20.4282179104      -15.6756858460  MEMB      162             0.0000000000
     18847       162  CHL1      C7            -23.4122954850      -21.3128086532      -13.7221652570  MEMB      162             0.0000000000
     18848       162  CHL1      H7A           -22.3530761224      -21.2044454068      -13.7761085913  MEMB      162             0.0000000000
     18849       162  CHL1      H7B           -23.8753623605      -20.4069668193      -13.5599197697  MEMB      162             0.0000000000
     18850       162  CHL1      C8            -23.9404059002      -22.3761949140      -12.7176234409  MEMB      162             0.0000000000
     18851       162  CHL1      H8            -23.2438926483      -23.2017715183      -12.8843011674  MEMB      162             0.0000000000
     18852       162  CHL1      C14           -23.9869673021      -22.1823577233      -11.1736450108  MEMB      162             0.0000000000
     18853       162  CHL1      H14           -24.7665225675      -21.4217997660      -11.0598448576  MEMB      162             0.0000000000
     18854       162  CHL1      C15           -22.7967737739      -21.9571773898      -10.2859084399  MEMB      162             0.0000000000
     18855       162  CHL1      H15A          -21.8463724989      -22.2480364463      -10.7351761531  MEMB      162             0.0000000000
     18856       162  CHL1      H15B          -23.0085706032      -20.9394068258      -10.0299788988  MEMB      162             0.0000000000
     18857       162  CHL1      C16           -22.9208901266      -21.8974281300       -8.8226161746  MEMB      162             0.0000000000
     18858       162  CHL1      H16A          -21.9979101581      -22.4122222899       -8.5197646419  MEMB      162             0.0000000000
     18859       162  CHL1      H16B          -22.9147208476      -20.8903127988       -8.2606058438  MEMB      162             0.0000000000
     18860       162  CHL1      C17           -24.2704494028      -22.5885706087       -8.8657826926  MEMB      162             0.0000000000
     18861       162  CHL1      H17           -25.0269683768      -21.7630046998       -8.8110696325  MEMB      162             0.0000000000
     18862       162  CHL1      C13           -24.5050891710      -23.2057905211      -10.2881840162  MEMB      162             0.0000000000
     18863       162  CHL1      C18           -23.6012368537      -24.4316424878      -10.5011901430  MEMB      162             0.0000000000
     18864       162  CHL1      H18A          -24.0565306575      -25.2054228712       -9.8786690332  MEMB      162             0.0000000000
     18865       162  CHL1      H18B          -23.5578403571      -24.7842517020      -11.5524652830  MEMB      162             0.0000000000
     18866       162  CHL1      H18C          -22.5532705787      -24.2770302601      -10.1655785726  MEMB      162             0.0000000000
     18867       162  CHL1      C12           -25.9605551825      -23.2790296258      -10.6907330288  MEMB      162             0.0000000000
     18868       162  CHL1      H12A          -26.4482180799      -24.0401306182      -10.0709470799  MEMB      162             0.0000000000
     18869       162  CHL1      H12B          -26.4368430907      -22.2786347740      -10.5237015990  MEMB      162             0.0000000000
     18870       162  CHL1      C11           -26.0810041476      -23.5955757237      -12.1760136479  MEMB      162             0.0000000000
     18871       162  CHL1      H11A          -25.6054471265      -24.5900909453      -12.2655578015  MEMB      162             0.0000000000
     18872       162  CHL1      H11B          -27.1606560795      -23.6380246921      -12.4071234534  MEMB      162             0.0000000000
     18873       162  CHL1      C9            -25.3749144969      -22.5921262687      -13.1265896525  MEMB      162             0.0000000000
     18874       162  CHL1      H9            -25.9137587907      -21.6098903103      -12.9822625474  MEMB      162             0.0000000000
     18875       162  CHL1      C10           -25.4976982727      -22.8971049661      -14.6376617734  MEMB      162             0.0000000000
     18876       162  CHL1      C19           -25.0311818531      -24.3425431316      -14.8972109668  MEMB      162             0.0000000000
     18877       162  CHL1      H19A          -25.4933396850      -25.0826516749      -14.2185246534  MEMB      162             0.0000000000
     18878       162  CHL1      H19B          -25.3656265371      -24.6087195771      -15.9146392605  MEMB      162             0.0000000000
     18879       162  CHL1      H19C          -23.9250582911      -24.4452250040      -14.8353835762  MEMB      162             0.0000000000
     18880       162  CHL1      C1            -26.9809484554      -22.6835257847      -15.0165542095  MEMB      162             0.0000000000
     18881       162  CHL1      H1A           -27.5932957163      -23.4778786906      -14.5420420802  MEMB      162             0.0000000000
     18882       162  CHL1      H1B           -27.3092902023      -21.7085899650      -14.5898349425  MEMB      162             0.0000000000
     18883       162  CHL1      C2            -27.2762913622      -22.6493777350      -16.5266026690  MEMB      162             0.0000000000
     18884       162  CHL1      H2A           -28.3311077631      -22.3416303593      -16.6686269015  MEMB      162             0.0000000000
     18885       162  CHL1      H2B           -27.1925592950      -23.6745818902      -16.9352671337  MEMB      162             0.0000000000
     18886       162  CHL1      C20           -24.2900452047      -23.4723633976       -7.6697487013  MEMB      162             0.0000000000
     18887       162  CHL1      H20           -23.4741568485      -24.2286246355       -7.7282892479  MEMB      162             0.0000000000
     18888       162  CHL1      C21           -25.6098629675      -24.2106074710       -7.5570121874  MEMB      162             0.0000000000
     18889       162  CHL1      H21A          -25.6793309507      -24.7261276870       -6.5867801689  MEMB      162             0.0000000000
     18890       162  CHL1      H21B          -25.5744267405      -24.9768882741       -8.3319365298  MEMB      162             0.0000000000
     18891       162  CHL1      H21C          -26.5045268754      -23.5816291704       -7.7170654861  MEMB      162             0.0000000000
     18892       162  CHL1      C22           -24.0321489590      -22.6152873091       -6.4431775352  MEMB      162             0.0000000000
     18893       162  CHL1      H22A          -23.0945865406      -22.0294664991       -6.5184342959  MEMB      162             0.0000000000
     18894       162  CHL1      H22B          -24.8865557182      -21.9065609774       -6.5016672002  MEMB      162             0.0000000000
     18895       162  CHL1      C23           -23.9211786097      -23.4525728010       -5.1711576790  MEMB      162             0.0000000000
     18896       162  CHL1      H23A          -24.9033123757      -23.9282393226       -4.9637396477  MEMB      162             0.0000000000
     18897       162  CHL1      H23B          -23.1172782809      -24.2041150362       -5.2455236721  MEMB      162             0.0000000000
     18898       162  CHL1      C24           -23.5233916865      -22.7033480832       -3.9373964163  MEMB      162             0.0000000000
     18899       162  CHL1      H24A          -22.8195875740      -21.8601042153       -4.0959216591  MEMB      162             0.0000000000
     18900       162  CHL1      H24B          -24.4493791652      -22.3145332300       -3.6098047834  MEMB      162             0.0000000000
     18901       162  CHL1      C25           -23.4534687343      -23.4655886790       -2.6432000281  MEMB      162             0.0000000000
     18902       162  CHL1      H25           -24.3648915469      -24.0807274726       -2.4244001797  MEMB      162             0.0000000000
     18903       162  CHL1      C26           -22.1668540835      -24.1401747837       -2.5652984846  MEMB      162             0.0000000000
     18904       162  CHL1      H26A          -21.4295249513      -23.3137412596       -2.7208999811  MEMB      162             0.0000000000
     18905       162  CHL1      H26B          -22.0621820937      -24.5959964898       -1.5639069774  MEMB      162             0.0000000000
     18906       162  CHL1      H26C          -22.1649122111      -24.8832930425       -3.3759990917  MEMB      162             0.0000000000
     18907       162  CHL1      C27           -23.4073580453      -22.4859003312       -1.5754187053  MEMB      162             0.0000000000
     18908       162  CHL1      H27A          -24.4486444790      -22.1227561008       -1.5806545125  MEMB      162             0.0000000000
     18909       162  CHL1      H27B          -23.1360252551      -22.8980582457       -0.5799892216  MEMB      162             0.0000000000
     18910       162  CHL1      H27C          -22.7820045001      -21.5943493527       -1.7989166616  MEMB      162             0.0000000000
     18911       163  POPC      N              23.1848272631       26.0237523353      -20.9816716390  MEMB      163             0.0000000000
     18912       163  POPC      C12            22.1609033352       25.9941138348      -19.8416569346  MEMB      163             0.0000000000
     18913       163  POPC      H12A           21.4126982763       25.2302119789      -20.0159613707  MEMB      163             0.0000000000
     18914       163  POPC      H12B           21.5877369548       26.9236555313      -19.8397208392  MEMB      163             0.0000000000
     18915       163  POPC      C13            23.8396658325       24.7099520606      -21.2204263946  MEMB      163             0.0000000000
     18916       163  POPC      H13A           23.0681706053       23.9681439790      -21.3894735782  MEMB      163             0.0000000000
     18917       163  POPC      H13B           24.4989976889       24.8002365530      -22.0759865484  MEMB      163             0.0000000000
     18918       163  POPC      H13C           24.4303962204       24.4404835721      -20.3486934373  MEMB      163             0.0000000000
     18919       163  POPC      C14            22.4880107241       26.3514336188      -22.2391091996  MEMB      163             0.0000000000
     18920       163  POPC      H14A           21.7359327615       25.5996735900      -22.4117217569  MEMB      163             0.0000000000
     18921       163  POPC      H14B           21.9589058023       27.2923120303      -22.1222203525  MEMB      163             0.0000000000
     18922       163  POPC      H14C           23.1601336046       26.4596770062      -23.0881959444  MEMB      163             0.0000000000
     18923       163  POPC      C15            24.2535026697       27.0121664718      -20.6460576632  MEMB      163             0.0000000000
     18924       163  POPC      H15A           24.8595056599       26.5922201543      -19.8397438778  MEMB      163             0.0000000000
     18925       163  POPC      H15B           23.8409615182       27.9401633420      -20.2678228302  MEMB      163             0.0000000000
     18926       163  POPC      H15C           24.8771824798       27.2271066490      -21.5036789302  MEMB      163             0.0000000000
     18927       163  POPC      C11            22.6888904807       25.8297673249      -18.3947620207  MEMB      163             0.0000000000
     18928       163  POPC      H11A           21.7886383990       25.8054395119      -17.7275724579  MEMB      163             0.0000000000
     18929       163  POPC      H11B           23.2761267421       26.7491394460      -18.1548941765  MEMB      163             0.0000000000
     18930       163  POPC      P              24.6054256886       24.5311869334      -17.1258756324  MEMB      163             0.0000000000
     18931       163  POPC      O13            24.9324318401       25.8745936757      -16.6094112404  MEMB      163             0.0000000000
     18932       163  POPC      O14            25.7155519524       23.7888702206      -17.7566220971  MEMB      163             0.0000000000
     18933       163  POPC      O12            23.4667535478       24.6392197125      -18.2471713466  MEMB      163             0.0000000000
     18934       163  POPC      O11            23.9676192253       23.6348409458      -15.9735666250  MEMB      163             0.0000000000
     18935       163  POPC      C1             22.5888895040       23.7519075706      -15.6080618581  MEMB      163             0.0000000000
     18936       163  POPC      HA             22.2960213395       22.8589436457      -15.0078831738  MEMB      163             0.0000000000
     18937       163  POPC      HB             21.9258126591       23.7305272598      -16.5033417863  MEMB      163             0.0000000000
     18938       163  POPC      C2             22.3722361217       24.9843824102      -14.6859481567  MEMB      163             0.0000000000
     18939       163  POPC      HS             22.5281291123       25.8959058044      -15.3134649912  MEMB      163             0.0000000000
     18940       163  POPC      O21            23.3415449291       24.8706908026      -13.6122475310  MEMB      163             0.0000000000
     18941       163  POPC      C21            23.9993993473       25.9716774922      -13.3096077848  MEMB      163             0.0000000000
     18942       163  POPC      O22            23.6970924095       27.1039315614      -13.6425439415  MEMB      163             0.0000000000
     18943       163  POPC      C22            25.2568531050       25.6786625064      -12.4854563062  MEMB      163             0.0000000000
     18944       163  POPC      H2R            26.1052473249       25.7973615773      -13.1945388715  MEMB      163             0.0000000000
     18945       163  POPC      H2S            25.3589980535       24.7011575542      -12.0384134959  MEMB      163             0.0000000000
     18946       163  POPC      C3             20.9360864368       25.0218590554      -14.1021733399  MEMB      163             0.0000000000
     18947       163  POPC      HX             20.8327786400       24.1112139176      -13.4821931998  MEMB      163             0.0000000000
     18948       163  POPC      HY             20.1524934910       24.9322109989      -14.8852611778  MEMB      163             0.0000000000
     18949       163  POPC      O31            20.7391216196       26.1362442189      -13.2247312361  MEMB      163             0.0000000000
     18950       163  POPC      C31            20.0198567347       27.1547351079      -13.6405517302  MEMB      163             0.0000000000
     18951       163  POPC      O32            19.6408766610       27.3974193246      -14.7604919027  MEMB      163             0.0000000000
     18952       163  POPC      C32            19.6697681889       28.0595479590      -12.4646648668  MEMB      163             0.0000000000
     18953       163  POPC      H2X            18.5969734109       28.3062852928      -12.4343664408  MEMB      163             0.0000000000
     18954       163  POPC      H2Y            20.1415327661       28.9452484898      -12.8736723152  MEMB      163             0.0000000000
     18955       163  POPC      C23            25.3705983651       26.5814056173      -11.2509464511  MEMB      163             0.0000000000
     18956       163  POPC      H3R            24.9394135359       27.5625121026      -11.5185243425  MEMB      163             0.0000000000
     18957       163  POPC      H3S            26.4541366951       26.6751122818      -11.0343035254  MEMB      163             0.0000000000
     18958       163  POPC      C24            24.6907081455       26.0936640837       -9.9676223294  MEMB      163             0.0000000000
     18959       163  POPC      H4R            25.1412633256       25.1389425305       -9.6034808236  MEMB      163             0.0000000000
     18960       163  POPC      H4S            23.6108003292       25.9610738564      -10.1921032154  MEMB      163             0.0000000000
     18961       163  POPC      C25            24.6727322176       27.1468396876       -8.8578808494  MEMB      163             0.0000000000
     18962       163  POPC      H5R            24.5155311937       28.1269057439       -9.3281678415  MEMB      163             0.0000000000
     18963       163  POPC      H5S            25.6284936424       27.1383242726       -8.2961053894  MEMB      163             0.0000000000
     18964       163  POPC      C26            23.4281432256       27.1373537300       -7.9751040805  MEMB      163             0.0000000000
     18965       163  POPC      H6R            22.5319123444       27.1992165210       -8.6395992675  MEMB      163             0.0000000000
     18966       163  POPC      H6S            23.4278476466       28.0601153506       -7.3540190789  MEMB      163             0.0000000000
     18967       163  POPC      C27            23.4394592141       25.9268294230       -7.0573509089  MEMB      163             0.0000000000
     18968       163  POPC      H7R            24.3064175588       26.0371037132       -6.3729330370  MEMB      163             0.0000000000
     18969       163  POPC      H7S            23.6252904221       25.0207557399       -7.6722758302  MEMB      163             0.0000000000
     18970       163  POPC      C28            22.2250977471       25.7942627635       -6.1539356286  MEMB      163             0.0000000000
     18971       163  POPC      H8R            22.1614708378       26.6491882576       -5.4701082000  MEMB      163             0.0000000000
     18972       163  POPC      H8S            22.3444706648       24.9335399623       -5.4518899741  MEMB      163             0.0000000000
     18973       163  POPC      C29            20.9763681580       25.8163561149       -6.9636973974  MEMB      163             0.0000000000
     18974       163  POPC      H91            20.8575672225       26.3198994501       -7.8960284251  MEMB      163             0.0000000000
     18975       163  POPC      C210           19.9776501877       25.0988464195       -6.6739166424  MEMB      163             0.0000000000
     18976       163  POPC      H101           18.9748828456       25.2422048784       -7.1188604869  MEMB      163             0.0000000000
     18977       163  POPC      C211           20.0628224950       24.2529010834       -5.5206879612  MEMB      163             0.0000000000
     18978       163  POPC      H11R           20.7790267628       24.1619724693       -4.6518378103  MEMB      163             0.0000000000
     18979       163  POPC      H11S           19.5378650019       23.3711053245       -5.9118869615  MEMB      163             0.0000000000
     18980       163  POPC      C212           19.2205558907       25.2621857298       -4.9179351860  MEMB      163             0.0000000000
     18981       163  POPC      H12R           18.8621472419       24.3831537881       -4.3828445767  MEMB      163             0.0000000000
     18982       163  POPC      H12S           18.2400204298       25.2413995682       -5.2373402176  MEMB      163             0.0000000000
     18983       163  POPC      C213           19.5943693265       26.6748256639       -4.1776090085  MEMB      163             0.0000000000
     18984       163  POPC      H13R           18.8484739952       27.4543231719       -3.6397514641  MEMB      163             0.0000000000
     18985       163  POPC      H13S           19.3204384909       27.2579437076       -5.0431550152  MEMB      163             0.0000000000
     18986       163  POPC      C214           20.5765078061       26.4731805978       -3.0237843418  MEMB      163             0.0000000000
     18987       163  POPC      H14R           21.1248941527       25.5680701781       -3.2341849204  MEMB      163             0.0000000000
     18988       163  POPC      H14S           20.5583669271       25.9707793238       -1.9883149078  MEMB      163             0.0000000000
     18989       163  POPC      C215           20.6716810136       27.9147663349       -2.6077496068  MEMB      163             0.0000000000
     18990       163  POPC      H15R           19.7222605518       28.4003299821       -2.2517070996  MEMB      163             0.0000000000
     18991       163  POPC      H15S           20.9175661752       28.3774766426       -3.5780816593  MEMB      163             0.0000000000
     18992       163  POPC      C216           21.7026165087       28.0484705184       -1.5967880993  MEMB      163             0.0000000000
     18993       163  POPC      H16R           21.4553651204       27.3434907598       -0.7916788162  MEMB      163             0.0000000000
     18994       163  POPC      H16S           21.6816278678       29.0951003972       -1.2389493281  MEMB      163             0.0000000000
     18995       163  POPC      C217           22.9141235085       27.6909136551       -2.4127299462  MEMB      163             0.0000000000
     18996       163  POPC      H17R           22.8404932348       28.3872467158       -3.2904206360  MEMB      163             0.0000000000
     18997       163  POPC      H17S           22.9373247730       26.6409020113       -2.7391798792  MEMB      163             0.0000000000
     18998       163  POPC      C218           24.1810871741       27.9533902321       -1.7366553563  MEMB      163             0.0000000000
     18999       163  POPC      H18R           24.0978888163       29.0524153607       -1.7397981325  MEMB      163             0.0000000000
     19000       163  POPC      H18S           25.1054561076       27.7764268768       -2.2849284620  MEMB      163             0.0000000000
     19001       163  POPC      H18T           24.2362919727       27.4889098929       -0.7208710849  MEMB      163             0.0000000000
     19002       163  POPC      C33            20.2085245712       27.6615614840      -11.0715716489  MEMB      163             0.0000000000
     19003       163  POPC      H3X            20.4582759553       28.5608121236      -10.4892192975  MEMB      163             0.0000000000
     19004       163  POPC      H3Y            21.1891751615       27.1625835115      -11.1563670028  MEMB      163             0.0000000000
     19005       163  POPC      C34            19.2236708943       26.7994057584      -10.2671599619  MEMB      163             0.0000000000
     19006       163  POPC      H4X            18.1830860387       27.1816684563      -10.3169868778  MEMB      163             0.0000000000
     19007       163  POPC      H4Y            19.5328419329       26.8779399593       -9.2051095723  MEMB      163             0.0000000000
     19008       163  POPC      C35            19.2457509671       25.3347107286      -10.7134938624  MEMB      163             0.0000000000
     19009       163  POPC      H5X            18.9555267571       25.2533058855      -11.7815338812  MEMB      163             0.0000000000
     19010       163  POPC      H5Y            18.5047437055       24.7260815681      -10.1769650892  MEMB      163             0.0000000000
     19011       163  POPC      C36            20.5920607757       24.6724022902      -10.4747408409  MEMB      163             0.0000000000
     19012       163  POPC      H6X            20.8491067559       24.7121926955       -9.3988789618  MEMB      163             0.0000000000
     19013       163  POPC      H6Y            21.4140281696       25.1943507142      -11.0221701266  MEMB      163             0.0000000000
     19014       163  POPC      C37            20.5361222631       23.2043606042      -10.8289457445  MEMB      163             0.0000000000
     19015       163  POPC      H7X            19.9839557631       23.0290874829      -11.7792630595  MEMB      163             0.0000000000
     19016       163  POPC      H7Y            20.1547980224       22.5714178908      -10.0018742357  MEMB      163             0.0000000000
     19017       163  POPC      C38            21.9022586669       22.7145874468      -11.0389896542  MEMB      163             0.0000000000
     19018       163  POPC      H8X            22.1093163273       23.0086023882      -12.1008747749  MEMB      163             0.0000000000
     19019       163  POPC      H8Y            21.8871854439       21.6420172563      -11.1891883810  MEMB      163             0.0000000000
     19020       163  POPC      C39            22.9408597901       23.1767037249       -9.9589688594  MEMB      163             0.0000000000
     19021       163  POPC      H9X            23.2328553456       24.1784695591      -10.1244642851  MEMB      163             0.0000000000
     19022       163  POPC      H9Y            24.0061606348       23.0045656031      -10.0347694945  MEMB      163             0.0000000000
     19023       163  POPC      C310           22.9126258052       22.5295466568       -8.5780248159  MEMB      163             0.0000000000
     19024       163  POPC      H10X           22.4696334943       21.5325444756       -8.7420637034  MEMB      163             0.0000000000
     19025       163  POPC      H10Y           22.2120263941       23.1473008878       -8.0196526504  MEMB      163             0.0000000000
     19026       163  POPC      C311           24.3248424457       22.2948438637       -7.9368900471  MEMB      163             0.0000000000
     19027       163  POPC      H11X           25.0362610026       23.1372265293       -8.0308120731  MEMB      163             0.0000000000
     19028       163  POPC      H11Y           24.8467340574       21.4019365787       -8.3026981606  MEMB      163             0.0000000000
     19029       163  POPC      C312           24.3239935118       21.7832426456       -6.5565396771  MEMB      163             0.0000000000
     19030       163  POPC      H12X           25.3907004112       21.6534193954       -6.2212194068  MEMB      163             0.0000000000
     19031       163  POPC      H12Y           23.9598975018       20.7367657629       -6.5431462180  MEMB      163             0.0000000000
     19032       163  POPC      C313           23.5138717968       22.8037346573       -5.7435817233  MEMB      163             0.0000000000
     19033       163  POPC      H13X           22.4277291267       22.6950594417       -5.7922394102  MEMB      163             0.0000000000
     19034       163  POPC      H13Y           23.9595264306       23.8143013501       -5.8716377679  MEMB      163             0.0000000000
     19035       163  POPC      C314           23.9166457022       22.6641253235       -4.3743193936  MEMB      163             0.0000000000
     19036       163  POPC      H14X           24.9732878065       22.8663636203       -4.6365291099  MEMB      163             0.0000000000
     19037       163  POPC      H14Y           24.1531782165       21.5810189073       -4.4731753273  MEMB      163             0.0000000000
     19038       163  POPC      C315           23.3732025718       23.3199387788       -2.8598618066  MEMB      163             0.0000000000
     19039       163  POPC      H15X           22.3262208449       22.9905901953       -2.9667469500  MEMB      163             0.0000000000
     19040       163  POPC      H15Y           23.0865291422       24.3297404855       -2.9858072766  MEMB      163             0.0000000000
     19041       163  POPC      C316           24.0639344061       23.2856527512       -1.2131998840  MEMB      163             0.0000000000
     19042       163  POPC      H16X           25.1108239360       23.4647509014       -0.9953572205  MEMB      163             0.0000000000
     19043       163  POPC      H16Y           24.5246325907       22.3443919906       -0.7668307151  MEMB      163             0.0000000000
     19044       163  POPC      H16Z           23.5132318196       23.1084883821       -0.3196165161  MEMB      163             0.0000000000
     19045       164  CHL1      C3             34.4489670576       -4.5723481481      -17.3235377563  MEMB      164             0.0000000000
     19046       164  CHL1      H3             35.1997820095       -3.7484535377      -17.3640477453  MEMB      164             0.0000000000
     19047       164  CHL1      O3             33.9425552139       -4.8282629679      -18.6154152502  MEMB      164             0.0000000000
     19048       164  CHL1      H3'            34.7076741963       -5.1054263655      -19.1465930985  MEMB      164             0.0000000000
     19049       164  CHL1      C4             35.1615799014       -5.8457648356      -16.8951710731  MEMB      164             0.0000000000
     19050       164  CHL1      H4A            34.6000327585       -6.7467887486      -17.2030257383  MEMB      164             0.0000000000
     19051       164  CHL1      H4B            36.1233231009       -5.8388616231      -17.4693707723  MEMB      164             0.0000000000
     19052       164  CHL1      C5             35.3935460748       -5.8852772826      -15.4160785159  MEMB      164             0.0000000000
     19053       164  CHL1      C6             36.5810736989       -6.1068184803      -14.9493965735  MEMB      164             0.0000000000
     19054       164  CHL1      H6             37.4559829924       -6.3572535850      -15.5766344969  MEMB      164             0.0000000000
     19055       164  CHL1      C7             36.6942635947       -6.0962543443      -13.4869308146  MEMB      164             0.0000000000
     19056       164  CHL1      H7A            36.9233161854       -7.1109446565      -13.3583119060  MEMB      164             0.0000000000
     19057       164  CHL1      H7B            37.4679196258       -5.3664095193      -13.1531035868  MEMB      164             0.0000000000
     19058       164  CHL1      C8             35.6124811736       -6.4041481872      -12.5076620222  MEMB      164             0.0000000000
     19059       164  CHL1      H8             35.2052092497       -7.4421920665      -12.6761533048  MEMB      164             0.0000000000
     19060       164  CHL1      C14            36.1602800152       -6.2764741767      -11.0950198487  MEMB      164             0.0000000000
     19061       164  CHL1      H14            36.7528992021       -5.3287168288      -11.0338185708  MEMB      164             0.0000000000
     19062       164  CHL1      C15            37.1449888200       -7.3061328516      -10.5753653397  MEMB      164             0.0000000000
     19063       164  CHL1      H15A           36.9016139739       -8.2977801300      -10.9805415060  MEMB      164             0.0000000000
     19064       164  CHL1      H15B           38.1501339965       -7.0145466938      -10.8518571004  MEMB      164             0.0000000000
     19065       164  CHL1      C16            37.0597189534       -7.2513017121       -9.0519533714  MEMB      164             0.0000000000
     19066       164  CHL1      H16A           36.8378311593       -8.2702304460       -8.7173287340  MEMB      164             0.0000000000
     19067       164  CHL1      H16B           38.0361499218       -6.9798690290       -8.6118432898  MEMB      164             0.0000000000
     19068       164  CHL1      C17            35.8783069291       -6.2764841486       -8.7453361117  MEMB      164             0.0000000000
     19069       164  CHL1      H17            36.3181308740       -5.2672422327       -8.6216247296  MEMB      164             0.0000000000
     19070       164  CHL1      C13            35.0742333863       -6.2268113797      -10.0724424701  MEMB      164             0.0000000000
     19071       164  CHL1      C18            34.2373154915       -7.4745256025      -10.0938882207  MEMB      164             0.0000000000
     19072       164  CHL1      H18A           34.9640071204       -8.2216332406       -9.7798713473  MEMB      164             0.0000000000
     19073       164  CHL1      H18B           33.4141504853       -7.4156698772       -9.3568737926  MEMB      164             0.0000000000
     19074       164  CHL1      H18C           33.8196419364       -7.7593835406      -11.0780765660  MEMB      164             0.0000000000
     19075       164  CHL1      C12            34.1864752800       -5.0547003941      -10.4312110814  MEMB      164             0.0000000000
     19076       164  CHL1      H12A           33.3832479291       -5.0707022256       -9.6797014820  MEMB      164             0.0000000000
     19077       164  CHL1      H12B           34.8350618935       -4.1651900073      -10.3190736479  MEMB      164             0.0000000000
     19078       164  CHL1      C11            33.6013972064       -5.1318250200      -11.8733570040  MEMB      164             0.0000000000
     19079       164  CHL1      H11A           32.8505189728       -5.9415222187      -11.9456991167  MEMB      164             0.0000000000
     19080       164  CHL1      H11B           33.0886995962       -4.1980370002      -12.1649046943  MEMB      164             0.0000000000
     19081       164  CHL1      C9             34.6984088423       -5.3361143200      -12.9173627698  MEMB      164             0.0000000000
     19082       164  CHL1      H9             35.3492236647       -4.4169722238      -12.8588491102  MEMB      164             0.0000000000
     19083       164  CHL1      C10            34.2790158056       -5.5026610484      -14.4191021564  MEMB      164             0.0000000000
     19084       164  CHL1      C19            33.2570435777       -6.6516134026      -14.5547892388  MEMB      164             0.0000000000
     19085       164  CHL1      H19A           33.7656029877       -7.6124867294      -14.3386442485  MEMB      164             0.0000000000
     19086       164  CHL1      H19B           32.3804910138       -6.5677224683      -13.8855587524  MEMB      164             0.0000000000
     19087       164  CHL1      H19C           32.8913567270       -6.6989558555      -15.5991302037  MEMB      164             0.0000000000
     19088       164  CHL1      C1             33.7855459784       -4.1387021991      -14.9170900321  MEMB      164             0.0000000000
     19089       164  CHL1      H1A            32.9348471970       -3.8072245222      -14.2916046452  MEMB      164             0.0000000000
     19090       164  CHL1      H1B            34.6300398861       -3.4180022821      -14.7894142599  MEMB      164             0.0000000000
     19091       164  CHL1      C2             33.3278825522       -4.1265016794      -16.3784810158  MEMB      164             0.0000000000
     19092       164  CHL1      H2A            33.0152861571       -3.0897275698      -16.6396626181  MEMB      164             0.0000000000
     19093       164  CHL1      H2B            32.4431052644       -4.7843833330      -16.4762105225  MEMB      164             0.0000000000
     19094       164  CHL1      C20            35.1571730053       -6.6290000322       -7.4373549030  MEMB      164             0.0000000000
     19095       164  CHL1      H20            34.7703263311       -7.6753897241       -7.4693416789  MEMB      164             0.0000000000
     19096       164  CHL1      C21            34.0364130406       -5.6157115235       -7.0805765739  MEMB      164             0.0000000000
     19097       164  CHL1      H21A           33.1814155310       -5.7168212667       -7.7587651593  MEMB      164             0.0000000000
     19098       164  CHL1      H21B           34.4391836826       -4.5820243733       -7.0758511963  MEMB      164             0.0000000000
     19099       164  CHL1      H21C           33.5744041986       -5.7544579880       -6.0856621035  MEMB      164             0.0000000000
     19100       164  CHL1      C22            36.1085438609       -6.6446223939       -6.2707659272  MEMB      164             0.0000000000
     19101       164  CHL1      H22A           36.9471368765       -7.3715892703       -6.3878110647  MEMB      164             0.0000000000
     19102       164  CHL1      H22B           36.5633203397       -5.6258220941       -6.1628527503  MEMB      164             0.0000000000
     19103       164  CHL1      C23            35.2916331329       -6.9896956014       -5.0103930409  MEMB      164             0.0000000000
     19104       164  CHL1      H23A           34.7965710076       -6.0525088202       -4.6730329287  MEMB      164             0.0000000000
     19105       164  CHL1      H23B           34.5589114748       -7.7988163670       -5.0566170780  MEMB      164             0.0000000000
     19106       164  CHL1      C24            36.1384378135       -7.4679975846       -3.9146037726  MEMB      164             0.0000000000
     19107       164  CHL1      H24A           36.8223761545       -8.3285873383       -4.0691956203  MEMB      164             0.0000000000
     19108       164  CHL1      H24B           36.9254443268       -6.8142573064       -4.3999239486  MEMB      164             0.0000000000
     19109       164  CHL1      C25            35.3337429921       -7.2233874217       -2.4724886305  MEMB      164             0.0000000000
     19110       164  CHL1      H25            35.0456694124       -6.7871125527       -1.5770103719  MEMB      164             0.0000000000
     19111       164  CHL1      C26            34.3273819410       -8.3847516206       -2.2828966211  MEMB      164             0.0000000000
     19112       164  CHL1      H26A           34.2410303823       -8.5194069688       -1.1643614315  MEMB      164             0.0000000000
     19113       164  CHL1      H26B           33.5944265048       -7.8558720715       -2.8722745748  MEMB      164             0.0000000000
     19114       164  CHL1      H26C           34.8559651264       -9.2160211067       -2.7632945345  MEMB      164             0.0000000000
     19115       164  CHL1      C27            36.5297755291       -7.0883962068       -0.9926394317  MEMB      164             0.0000000000
     19116       164  CHL1      H27A           36.8873970389       -7.3112677003       -0.2853222200  MEMB      164             0.0000000000
     19117       164  CHL1      H27B           38.5572780480       -8.4083692782       -1.3560963544  MEMB      164             0.0000000000
     19118       164  CHL1      H27C           36.8214250093       -5.9964250496       -0.7512900683  MEMB      164             0.0000000000
     19119       165  SAPC      N             -19.6179751557       27.8370324784      -21.9370957738  MEMB      165             0.0000000000
     19120       165  SAPC      C12           -18.9547597963       27.2237109008      -20.7226078849  MEMB      165             0.0000000000
     19121       165  SAPC      H12A          -17.8992368521       27.1452430867      -20.9588789042  MEMB      165             0.0000000000
     19122       165  SAPC      H12B          -19.3692893677       26.2348343961      -20.5538392725  MEMB      165             0.0000000000
     19123       165  SAPC      C13           -19.5888087051       29.3318526680      -21.8091753813  MEMB      165             0.0000000000
     19124       165  SAPC      H13A          -19.9452069579       29.6760810859      -20.8238827933  MEMB      165             0.0000000000
     19125       165  SAPC      H13B          -18.6002298456       29.6920786900      -21.9824449936  MEMB      165             0.0000000000
     19126       165  SAPC      H13C          -20.2413655541       29.7928008573      -22.5205507557  MEMB      165             0.0000000000
     19127       165  SAPC      C14           -18.9224409133       27.3670541020      -23.1754226077  MEMB      165             0.0000000000
     19128       165  SAPC      H14A          -17.8452209349       27.4607096353      -23.1118671910  MEMB      165             0.0000000000
     19129       165  SAPC      H14B          -19.1536309064       26.3165322269      -23.3805022268  MEMB      165             0.0000000000
     19130       165  SAPC      H14C          -19.2647769215       27.9393079594      -24.0310588869  MEMB      165             0.0000000000
     19131       165  SAPC      C15           -21.0475954824       27.3724359218      -22.0109892851  MEMB      165             0.0000000000
     19132       165  SAPC      H15A          -21.4913871715       27.4727417741      -21.0151145543  MEMB      165             0.0000000000
     19133       165  SAPC      H15B          -21.6575098292       28.0136392062      -22.6376685582  MEMB      165             0.0000000000
     19134       165  SAPC      H15C          -21.1439315187       26.3597434859      -22.3885740334  MEMB      165             0.0000000000
     19135       165  SAPC      C11           -18.9593815672       28.0147179167      -19.3835179539  MEMB      165             0.0000000000
     19136       165  SAPC      H11A          -18.2012142282       28.8106803031      -19.5235555605  MEMB      165             0.0000000000
     19137       165  SAPC      H11B          -18.5998806028       27.3456795888      -18.5610660220  MEMB      165             0.0000000000
     19138       165  SAPC      P             -21.2502408365       27.8835711436      -18.1935571785  MEMB      165             0.0000000000
     19139       165  SAPC      O13           -22.1220608862       27.2436578167      -19.2035116116  MEMB      165             0.0000000000
     19140       165  SAPC      O14           -20.5818450640       26.9924838796      -17.2202416028  MEMB      165             0.0000000000
     19141       165  SAPC      O12           -20.1768046789       28.6686689355      -19.0474480519  MEMB      165             0.0000000000
     19142       165  SAPC      O11           -21.9985889945       29.0548766786      -17.4417905044  MEMB      165             0.0000000000
     19143       165  SAPC      C1            -22.5091221635       30.2141121499      -18.0991255992  MEMB      165             0.0000000000
     19144       165  SAPC      HA            -21.7627590047       30.5908278439      -18.8299026769  MEMB      165             0.0000000000
     19145       165  SAPC      HB            -23.4535093177       29.9733212263      -18.6398675026  MEMB      165             0.0000000000
     19146       165  SAPC      C2            -22.8753140502       31.3580236293      -17.0951439015  MEMB      165             0.0000000000
     19147       165  SAPC      HS            -23.1643402124       32.2555668447      -17.6889767838  MEMB      165             0.0000000000
     19148       165  SAPC      O21           -21.8050687026       31.7321878242      -16.2383129813  MEMB      165             0.0000000000
     19149       165  SAPC      C21           -20.6887177590       32.0930327674      -16.7695666250  MEMB      165             0.0000000000
     19150       165  SAPC      O22           -20.4064539935       32.2441331766      -17.9428641576  MEMB      165             0.0000000000
     19151       165  SAPC      C22           -19.7817703857       32.4831634876      -15.6441108743  MEMB      165             0.0000000000
     19152       165  SAPC      H2R           -19.2376423130       33.3200033015      -16.0885972442  MEMB      165             0.0000000000
     19153       165  SAPC      H2S           -20.3086007905       32.8445999850      -14.7430992919  MEMB      165             0.0000000000
     19154       165  SAPC      C3            -24.0373396925       30.9890727863      -16.1282218038  MEMB      165             0.0000000000
     19155       165  SAPC      HX            -25.0330842254       30.9182026899      -16.6104132035  MEMB      165             0.0000000000
     19156       165  SAPC      HY            -24.1042424704       31.8325303419      -15.4045033875  MEMB      165             0.0000000000
     19157       165  SAPC      O31           -23.7189399756       29.8235445762      -15.3593603145  MEMB      165             0.0000000000
     19158       165  SAPC      C31           -24.1784129150       28.6594654292      -15.7943173774  MEMB      165             0.0000000000
     19159       165  SAPC      O32           -25.0207789505       28.5153750314      -16.6640507917  MEMB      165             0.0000000000
     19160       165  SAPC      C32           -23.4927472983       27.5999781142      -14.9159963407  MEMB      165             0.0000000000
     19161       165  SAPC      H2X           -22.8185103307       28.0683199090      -14.1743456303  MEMB      165             0.0000000000
     19162       165  SAPC      H2Y           -23.0530413645       26.7314641224      -15.4257353666  MEMB      165             0.0000000000
     19163       165  SAPC      C23           -18.7910020664       31.3628311025      -15.3898045200  MEMB      165             0.0000000000
     19164       165  SAPC      H3R           -17.8699427422       31.7977310662      -15.1099429654  MEMB      165             0.0000000000
     19165       165  SAPC      H3S           -18.4981390905       30.8483281141      -16.3299829748  MEMB      165             0.0000000000
     19166       165  SAPC      C24           -19.1036988053       30.4386205927      -14.2131617707  MEMB      165             0.0000000000
     19167       165  SAPC      H4R           -18.6311502569       29.4972303910      -14.5751848708  MEMB      165             0.0000000000
     19168       165  SAPC      H4S           -20.2074644930       30.3426796946      -14.2111425926  MEMB      165             0.0000000000
     19169       165  SAPC      C25           -18.5451837861       30.7581628705      -12.8313645939  MEMB      165             0.0000000000
     19170       165  SAPC      H5R           -17.4550112608       30.8897511214      -12.8106602243  MEMB      165             0.0000000000
     19171       165  SAPC      C26           -19.2127402215       30.8803663108      -11.6621498588  MEMB      165             0.0000000000
     19172       165  SAPC      H6R           -18.6782650339       31.0165487951      -10.7021856965  MEMB      165             0.0000000000
     19173       165  SAPC      C27           -20.6842030755       30.7203057609      -11.4748704627  MEMB      165             0.0000000000
     19174       165  SAPC      H7R           -20.8598156419       30.6395791207      -10.3832229773  MEMB      165             0.0000000000
     19175       165  SAPC      H7S           -20.9978148850       29.7469560494      -11.8734050836  MEMB      165             0.0000000000
     19176       165  SAPC      C28           -21.5836053360       31.7337119633      -12.1004463941  MEMB      165             0.0000000000
     19177       165  SAPC      H8R           -21.6714000703       31.8082321853      -13.1890534338  MEMB      165             0.0000000000
     19178       165  SAPC      C29           -22.2272614989       32.6179322906      -11.3936888748  MEMB      165             0.0000000000
     19179       165  SAPC      H9R           -22.9082661980       33.2706315527      -11.9117499921  MEMB      165             0.0000000000
     19180       165  SAPC      C210          -22.1965757669       32.7894210939       -9.9238721039  MEMB      165             0.0000000000
     19181       165  SAPC      H10R          -23.0500075831       33.3598230871       -9.8073069654  MEMB      165             0.0000000000
     19182       165  SAPC      H10S          -21.5162567330       33.5185237006       -9.5164672008  MEMB      165             0.0000000000
     19183       165  SAPC      C211          -22.5663856182       31.7185720806       -9.0241181433  MEMB      165             0.0000000000
     19184       165  SAPC      H11R          -23.3627082656       31.2379832049       -9.4915754134  MEMB      165             0.0000000000
     19185       165  SAPC      C212          -22.2470721137       31.4186125900       -7.7843917823  MEMB      165             0.0000000000
     19186       165  SAPC      H12R          -22.7443581725       30.5740928899       -7.2910772677  MEMB      165             0.0000000000
     19187       165  SAPC      C213          -21.3088310634       32.2308753500       -6.9854970591  MEMB      165             0.0000000000
     19188       165  SAPC      H13R          -20.9481735518       33.1025685723       -7.5784763388  MEMB      165             0.0000000000
     19189       165  SAPC      H13S          -20.4455863547       31.5674917588       -6.8487344042  MEMB      165             0.0000000000
     19190       165  SAPC      C214          -21.9030508698       32.6402169953       -5.6660962074  MEMB      165             0.0000000000
     19191       165  SAPC      H14R          -22.9606780416       32.9634656114       -5.7174402676  MEMB      165             0.0000000000
     19192       165  SAPC      C215          -21.2313271820       32.8813429575       -4.5271151878  MEMB      165             0.0000000000
     19193       165  SAPC      H15R          -21.7974627334       33.1791735163       -3.6356048324  MEMB      165             0.0000000000
     19194       165  SAPC      C216          -19.7433762771       32.7895500619       -4.3322965652  MEMB      165             0.0000000000
     19195       165  SAPC      H16R          -19.3648266391       33.6406569056       -3.7452896112  MEMB      165             0.0000000000
     19196       165  SAPC      H16S          -19.2274749705       32.8297901567       -5.3126150732  MEMB      165             0.0000000000
     19197       165  SAPC      C217          -19.2443437220       31.5808680884       -3.5310962692  MEMB      165             0.0000000000
     19198       165  SAPC      H17R          -18.1360658372       31.5479463966       -3.6669707633  MEMB      165             0.0000000000
     19199       165  SAPC      H17S          -19.7085978416       30.6541724685       -3.9296916642  MEMB      165             0.0000000000
     19200       165  SAPC      C218          -19.4966065808       31.7360100853       -2.0261825826  MEMB      165             0.0000000000
     19201       165  SAPC      H18R          -20.5913265491       31.7590772873       -1.8373771950  MEMB      165             0.0000000000
     19202       165  SAPC      H18S          -19.0886945321       32.7235707322       -1.7141740990  MEMB      165             0.0000000000
     19203       165  SAPC      C219          -18.8121133898       30.6705297637       -1.1572671017  MEMB      165             0.0000000000
     19204       165  SAPC      H19R          -18.7966104027       31.0734663639       -0.1136221453  MEMB      165             0.0000000000
     19205       165  SAPC      H19S          -17.7489196026       30.5203822345       -1.4544110660  MEMB      165             0.0000000000
     19206       165  SAPC      C220          -19.5314815891       29.3212075248       -1.2051009450  MEMB      165             0.0000000000
     19207       165  SAPC      H20R          -18.9422218838       28.5071795491       -0.7578003012  MEMB      165             0.0000000000
     19208       165  SAPC      H20S          -19.6425966962       28.9309246950       -2.2244522357  MEMB      165             0.0000000000
     19209       165  SAPC      H20T          -20.5198930844       29.3878313223       -0.6980850206  MEMB      165             0.0000000000
     19210       165  SAPC      C33           -24.5004177652       27.0249810599      -14.0495855943  MEMB      165             0.0000000000
     19211       165  SAPC      H3X           -25.3785692567       26.8214115285      -14.7139021626  MEMB      165             0.0000000000
     19212       165  SAPC      H3Y           -24.7895470767       27.8260993229      -13.3447546092  MEMB      165             0.0000000000
     19213       165  SAPC      C34           -24.1156724142       25.8578289724      -13.1833540067  MEMB      165             0.0000000000
     19214       165  SAPC      H4X           -24.1361528000       24.9550364231      -13.8077028700  MEMB      165             0.0000000000
     19215       165  SAPC      H4Y           -24.8312036142       25.8316224921      -12.3502045548  MEMB      165             0.0000000000
     19216       165  SAPC      C35           -22.8777805539       25.8264843952      -12.3438617024  MEMB      165             0.0000000000
     19217       165  SAPC      H5X           -22.1111292292       25.7723321737      -13.1331797579  MEMB      165             0.0000000000
     19218       165  SAPC      H5Y           -22.8497911569       24.8675142717      -11.7634490091  MEMB      165             0.0000000000
     19219       165  SAPC      C36           -22.8837074130       27.0144390462      -11.3755303267  MEMB      165             0.0000000000
     19220       165  SAPC      H6X           -23.7442156464       26.9509026605      -10.6725377782  MEMB      165             0.0000000000
     19221       165  SAPC      H6Y           -23.0749367968       27.9455894842      -11.9530297877  MEMB      165             0.0000000000
     19222       165  SAPC      C37           -21.5864924912       27.1486168533      -10.5756035134  MEMB      165             0.0000000000
     19223       165  SAPC      H7X           -21.4323849821       28.2241560910      -10.3237621497  MEMB      165             0.0000000000
     19224       165  SAPC      H7Y           -20.7463171002       26.8522018409      -11.2428877103  MEMB      165             0.0000000000
     19225       165  SAPC      C38           -21.5811277289       26.3464530311       -9.2603561004  MEMB      165             0.0000000000
     19226       165  SAPC      H8X           -20.6330296149       26.5454824398       -8.7114943426  MEMB      165             0.0000000000
     19227       165  SAPC      H8Y           -21.6494254896       25.2498868978       -9.4375628801  MEMB      165             0.0000000000
     19228       165  SAPC      C39           -22.6645581278       26.7590142873       -8.2641701373  MEMB      165             0.0000000000
     19229       165  SAPC      H9X           -23.6661578775       26.4079580767       -8.5942112374  MEMB      165             0.0000000000
     19230       165  SAPC      H9Y           -22.6871882602       27.8739231348       -8.2327407412  MEMB      165             0.0000000000
     19231       165  SAPC      C310          -22.3567818100       26.1888666116       -6.8683271194  MEMB      165             0.0000000000
     19232       165  SAPC      H10X          -21.8345140604       25.2217613137       -6.9785818004  MEMB      165             0.0000000000
     19233       165  SAPC      H10Y          -23.2802237204       25.9423217064       -6.3189300106  MEMB      165             0.0000000000
     19234       165  SAPC      C311          -21.5511116034       27.1678515648       -6.0035982461  MEMB      165             0.0000000000
     19235       165  SAPC      H11X          -22.1729047553       28.0761515536       -5.8102209489  MEMB      165             0.0000000000
     19236       165  SAPC      H11Y          -20.6712821952       27.4907226621       -6.5986071866  MEMB      165             0.0000000000
     19237       165  SAPC      C312          -20.9937909000       26.5247265056       -4.7182432325  MEMB      165             0.0000000000
     19238       165  SAPC      H12X          -20.4515380555       27.2700910080       -4.0954843707  MEMB      165             0.0000000000
     19239       165  SAPC      H12Y          -20.2348582837       25.7737114902       -5.0227970418  MEMB      165             0.0000000000
     19240       165  SAPC      C313          -22.0170057792       25.7823207474       -3.8494283649  MEMB      165             0.0000000000
     19241       165  SAPC      H13X          -21.4825544023       25.2605932672       -3.0355236445  MEMB      165             0.0000000000
     19242       165  SAPC      H13Y          -22.5247446304       24.9832370650       -4.4345877193  MEMB      165             0.0000000000
     19243       165  SAPC      C314          -23.0821231276       26.7076594044       -3.2748683866  MEMB      165             0.0000000000
     19244       165  SAPC      H14X          -23.8397777027       26.1389341763       -2.7019350136  MEMB      165             0.0000000000
     19245       165  SAPC      H14Y          -23.5746529117       27.0611311740       -4.1699009993  MEMB      165             0.0000000000
     19246       165  SAPC      C315          -22.5788071483       27.9577411591       -2.5573195462  MEMB      165             0.0000000000
     19247       165  SAPC      H15X          -21.9862316589       28.5865303899       -3.2672865991  MEMB      165             0.0000000000
     19248       165  SAPC      H15Y          -21.9236591065       27.6646981429       -1.7132486155  MEMB      165             0.0000000000
     19249       165  SAPC      C316          -23.7066140449       28.8401581281       -2.0417887444  MEMB      165             0.0000000000
     19250       165  SAPC      H16X          -24.1982912867       28.3507519010       -1.1700495655  MEMB      165             0.0000000000
     19251       165  SAPC      H16Y          -24.4719644970       28.9706051001       -2.8453285975  MEMB      165             0.0000000000
     19252       165  SAPC      C317          -23.1364733563       30.1984236578       -1.6767587510  MEMB      165             0.0000000000
     19253       165  SAPC      H17X          -22.4690436196       30.6394800744       -2.4288379423  MEMB      165             0.0000000000
     19254       165  SAPC      H17Y          -22.7024392527       30.2142917814       -0.6387588633  MEMB      165             0.0000000000
     19255       165  SAPC      C318          -24.1407542079       31.2240696900       -1.6641092068  MEMB      165             0.0000000000
     19256       165  SAPC      H18X          -24.9815498703       31.1544503630       -2.3730950163  MEMB      165             0.0000000000
     19257       165  SAPC      H18Y          -23.7579887494       32.2624884406       -1.6674197160  MEMB      165             0.0000000000
     19258       165  SAPC      H18Z          -24.4660812829       30.9899957117       -0.6366202593  MEMB      165             0.0000000000
     19259       166  SAPS      N             -11.9686896814      -33.8811845547      -19.0842372061  MEMB      166             0.0000000000
     19260       166  SAPS      HN1           -11.8078664979      -34.8406375704      -18.7252396240  MEMB      166             0.0000000000
     19261       166  SAPS      HN2           -12.4986059361      -33.3661233657      -18.3460505151  MEMB      166             0.0000000000
     19262       166  SAPS      HN3           -12.4988552809      -33.9356702925      -19.9626278443  MEMB      166             0.0000000000
     19263       166  SAPS      C12           -10.6513551808      -33.1562137995      -19.2886438548  MEMB      166             0.0000000000
     19264       166  SAPS      H12A          -10.8528548121      -32.2190196383      -19.7892632232  MEMB      166             0.0000000000
     19265       166  SAPS      C13            -9.9188152755      -32.8619256813      -17.9507751526  MEMB      166             0.0000000000
     19266       166  SAPS      O13A          -10.5199180726      -33.1946095588      -16.8985458316  MEMB      166             0.0000000000
     19267       166  SAPS      O13B           -8.8262723829      -32.2553207200      -17.9423358053  MEMB      166             0.0000000000
     19268       166  SAPS      C11            -9.7323254120      -33.9897829209      -20.2191604524  MEMB      166             0.0000000000
     19269       166  SAPS      H11A          -10.3393556603      -34.4383592888      -21.0290856107  MEMB      166             0.0000000000
     19270       166  SAPS      H11B           -9.2616622219      -34.7827457022      -19.5943960088  MEMB      166             0.0000000000
     19271       166  SAPS      P              -7.6253487527      -33.5696082038      -21.8605928405  MEMB      166             0.0000000000
     19272       166  SAPS      O13            -8.1525056226      -34.6113345606      -22.7520230234  MEMB      166             0.0000000000
     19273       166  SAPS      O14            -7.0610019532      -32.3356379959      -22.4563298823  MEMB      166             0.0000000000
     19274       166  SAPS      O12            -8.7636151508      -33.1636208171      -20.8300311673  MEMB      166             0.0000000000
     19275       166  SAPS      O11            -6.4850744078      -34.1966290924      -20.9964469030  MEMB      166             0.0000000000
     19276       166  SAPS      C1             -5.9479957442      -33.4589660668      -19.9424410581  MEMB      166             0.0000000000
     19277       166  SAPS      HA             -4.8552820129      -33.2554016579      -20.1201074327  MEMB      166             0.0000000000
     19278       166  SAPS      HB             -6.4713326212      -32.5276204492      -19.6030717668  MEMB      166             0.0000000000
     19279       166  SAPS      C2             -6.0222979976      -34.3780618149      -18.7978877834  MEMB      166             0.0000000000
     19280       166  SAPS      HS             -5.2905491431      -35.1644753668      -19.1244154099  MEMB      166             0.0000000000
     19281       166  SAPS      O21            -7.2458407033      -35.1089032625      -18.4827949674  MEMB      166             0.0000000000
     19282       166  SAPS      C21            -7.2844883403      -36.3556717598      -17.9633310452  MEMB      166             0.0000000000
     19283       166  SAPS      O22            -6.4061603127      -37.0694589877      -17.5685348190  MEMB      166             0.0000000000
     19284       166  SAPS      C22            -8.6972877270      -36.8240320079      -17.8334090186  MEMB      166             0.0000000000
     19285       166  SAPS      H2R            -9.3448525087      -35.9435618303      -17.8158048717  MEMB      166             0.0000000000
     19286       166  SAPS      H2S            -8.7875573885      -37.4353506159      -18.7451149074  MEMB      166             0.0000000000
     19287       166  SAPS      C3             -5.5808335034      -33.3249039393      -17.6636220174  MEMB      166             0.0000000000
     19288       166  SAPS      HX             -4.5123461806      -32.9754282575      -17.6115341637  MEMB      166             0.0000000000
     19289       166  SAPS      HY             -5.9244253651      -34.1736997466      -17.0984882939  MEMB      166             0.0000000000
     19290       166  SAPS      O31            -6.3051999695      -32.4224847483      -16.9456721838  MEMB      166             0.0000000000
     19291       166  SAPS      C31            -6.1333032198      -32.3001672295      -15.6516494742  MEMB      166             0.0000000000
     19292       166  SAPS      O32            -5.2173799352      -32.5933006139      -14.9046712394  MEMB      166             0.0000000000
     19293       166  SAPS      C32            -7.2177024406      -31.4499887468      -15.2713618177  MEMB      166             0.0000000000
     19294       166  SAPS      H2X            -8.1662778054      -32.0305558868      -15.3086954078  MEMB      166             0.0000000000
     19295       166  SAPS      H2Y            -7.1594285399      -30.6526631372      -16.0457812346  MEMB      166             0.0000000000
     19296       166  SAPS      C23            -9.0163289936      -37.7662298264      -16.6634554380  MEMB      166             0.0000000000
     19297       166  SAPS      H3R            -8.4681321088      -38.7396050707      -16.7462322858  MEMB      166             0.0000000000
     19298       166  SAPS      H3S           -10.0960758108      -37.9283993287      -16.5197026147  MEMB      166             0.0000000000
     19299       166  SAPS      C24            -8.7236709489      -37.1747921503      -15.3493728881  MEMB      166             0.0000000000
     19300       166  SAPS      H4R            -7.9269607711      -36.4766247741      -15.4921710120  MEMB      166             0.0000000000
     19301       166  SAPS      H4S            -8.2859025828      -38.0403134219      -14.7868853013  MEMB      166             0.0000000000
     19302       166  SAPS      C25            -9.6350649937      -36.2911545939      -14.5613691298  MEMB      166             0.0000000000
     19303       166  SAPS      H5R            -9.6137795050      -35.2140808255      -14.8374250623  MEMB      166             0.0000000000
     19304       166  SAPS      C26           -10.3077931890      -36.7505452706      -13.4984080349  MEMB      166             0.0000000000
     19305       166  SAPS      H6R           -10.9308771085      -36.0358885504      -12.9500378063  MEMB      166             0.0000000000
     19306       166  SAPS      C27           -10.2544287652      -38.1887438736      -12.9754421931  MEMB      166             0.0000000000
     19307       166  SAPS      H7R            -9.6642269238      -38.8454116237      -13.6511315122  MEMB      166             0.0000000000
     19308       166  SAPS      H7S           -11.2733448332      -38.5719571596      -13.0513103615  MEMB      166             0.0000000000
     19309       166  SAPS      C28            -9.8394698240      -38.5745944847      -11.5830061720  MEMB      166             0.0000000000
     19310       166  SAPS      H8R            -8.8085859158      -38.9853883866      -11.5601756827  MEMB      166             0.0000000000
     19311       166  SAPS      C29           -10.3478207990      -38.1177164840      -10.4170754265  MEMB      166             0.0000000000
     19312       166  SAPS      H9R            -9.7852941720      -38.2457989570       -9.4801952538  MEMB      166             0.0000000000
     19313       166  SAPS      C210          -11.4162137415      -37.1394636058      -10.1432908131  MEMB      166             0.0000000000
     19314       166  SAPS      H10R          -11.8673402268      -37.5677807128       -9.2305870218  MEMB      166             0.0000000000
     19315       166  SAPS      H10S          -12.0981511396      -37.2525950049      -10.9960687269  MEMB      166             0.0000000000
     19316       166  SAPS      C211          -11.0776608490      -35.6683014944       -9.9283163805  MEMB      166             0.0000000000
     19317       166  SAPS      H11R          -10.4909327329      -35.1670497734      -10.7110913835  MEMB      166             0.0000000000
     19318       166  SAPS      C212          -11.4052100953      -34.8848539137       -8.8853929683  MEMB      166             0.0000000000
     19319       166  SAPS      H12R          -11.0843397265      -33.8340112325       -8.9359974245  MEMB      166             0.0000000000
     19320       166  SAPS      C213          -12.1910510888      -35.2460578642       -7.6479140878  MEMB      166             0.0000000000
     19321       166  SAPS      H13R          -12.8594115433      -36.1030065510       -7.8633236938  MEMB      166             0.0000000000
     19322       166  SAPS      H13S          -12.8631635523      -34.3995802932       -7.3875961002  MEMB      166             0.0000000000
     19323       166  SAPS      C214          -11.3544634673      -35.5497241057       -6.4320281653  MEMB      166             0.0000000000
     19324       166  SAPS      H14R          -11.5444475846      -36.5021994675       -5.9177656744  MEMB      166             0.0000000000
     19325       166  SAPS      C215          -10.6312921400      -34.6553382594       -5.7559107914  MEMB      166             0.0000000000
     19326       166  SAPS      H15R          -10.1018237740      -34.9830310907       -4.8564419809  MEMB      166             0.0000000000
     19327       166  SAPS      C216          -10.5004639908      -33.1990672754       -6.0469510943  MEMB      166             0.0000000000
     19328       166  SAPS      H16R          -11.2258373289      -32.8135546002       -6.8180214180  MEMB      166             0.0000000000
     19329       166  SAPS      H16S           -9.4840523815      -32.9553093761       -6.4044888610  MEMB      166             0.0000000000
     19330       166  SAPS      C217          -10.7840032421      -32.4657426493       -4.7336747650  MEMB      166             0.0000000000
     19331       166  SAPS      H17R          -11.8721596811      -32.4494119041       -4.5225015065  MEMB      166             0.0000000000
     19332       166  SAPS      H17S          -10.4084885244      -31.4561542242       -4.8736148111  MEMB      166             0.0000000000
     19333       166  SAPS      C218           -9.9045001029      -32.5059273255       -3.5112263465  MEMB      166             0.0000000000
     19334       166  SAPS      H18R          -10.0495538630      -33.4759688943       -3.0383741473  MEMB      166             0.0000000000
     19335       166  SAPS      H18S          -10.2825855478      -31.7269417307       -2.7929031322  MEMB      166             0.0000000000
     19336       166  SAPS      C219           -8.4617980507      -32.1222980853       -3.8406059224  MEMB      166             0.0000000000
     19337       166  SAPS      H19R           -8.4194102842      -31.2118377791       -4.4847151702  MEMB      166             0.0000000000
     19338       166  SAPS      H19S           -7.9576794053      -32.9266879248       -4.4143647991  MEMB      166             0.0000000000
     19339       166  SAPS      C220           -7.7052458119      -31.8166296145       -2.5679920346  MEMB      166             0.0000000000
     19340       166  SAPS      H20R           -8.2260677530      -31.0357212856       -1.9633149201  MEMB      166             0.0000000000
     19341       166  SAPS      H20S           -6.7123863838      -31.4256767712       -2.8329818466  MEMB      166             0.0000000000
     19342       166  SAPS      H20T           -7.5616553556      -32.7476911522       -1.9874463387  MEMB      166             0.0000000000
     19343       166  SAPS      C33            -6.7851927701      -30.9292138658      -13.9361682861  MEMB      166             0.0000000000
     19344       166  SAPS      H3X            -5.7034446603      -30.6567479365      -13.9120270207  MEMB      166             0.0000000000
     19345       166  SAPS      H3Y            -6.9724229532      -31.6944292895      -13.1414086491  MEMB      166             0.0000000000
     19346       166  SAPS      C34            -7.5041921721      -29.6915508220      -13.5787569695  MEMB      166             0.0000000000
     19347       166  SAPS      H4X            -8.5821259034      -29.8829189453      -13.8142690305  MEMB      166             0.0000000000
     19348       166  SAPS      H4Y            -7.2450779414      -28.7613432673      -14.1165446640  MEMB      166             0.0000000000
     19349       166  SAPS      C35            -7.3228629570      -29.5707297867      -12.0905611325  MEMB      166             0.0000000000
     19350       166  SAPS      H5X            -7.8873119767      -30.4914681547      -11.7552958538  MEMB      166             0.0000000000
     19351       166  SAPS      H5Y            -7.7093466312      -28.5617444236      -11.8547813593  MEMB      166             0.0000000000
     19352       166  SAPS      C36            -6.1176718843      -29.8332691944      -11.2368386087  MEMB      166             0.0000000000
     19353       166  SAPS      H6X            -5.4036307316      -29.0185059678      -11.4706869408  MEMB      166             0.0000000000
     19354       166  SAPS      H6Y            -5.7140949538      -30.8275159143      -11.4692825435  MEMB      166             0.0000000000
     19355       166  SAPS      C37            -6.3556413378      -29.9545021447       -9.7123462023  MEMB      166             0.0000000000
     19356       166  SAPS      H7X            -6.4202140769      -28.9992486892       -9.1778902096  MEMB      166             0.0000000000
     19357       166  SAPS      H7Y            -5.3683023657      -30.1689031999       -9.3775620697  MEMB      166             0.0000000000
     19358       166  SAPS      C38            -7.0997031191      -31.1071962004       -8.9852883192  MEMB      166             0.0000000000
     19359       166  SAPS      H8X            -8.1543369289      -31.2887233901       -9.2494512119  MEMB      166             0.0000000000
     19360       166  SAPS      H8Y            -7.0609676039      -30.9594385478       -7.8735220974  MEMB      166             0.0000000000
     19361       166  SAPS      C39            -6.6521681411      -32.4457548212       -9.2466469466  MEMB      166             0.0000000000
     19362       166  SAPS      H9X            -5.6543659861      -32.4911823608       -8.7760901701  MEMB      166             0.0000000000
     19363       166  SAPS      H9Y            -6.6328957069      -32.5518083393      -10.3605871710  MEMB      166             0.0000000000
     19364       166  SAPS      C310           -7.6674980024      -33.3796745943       -8.6285784389  MEMB      166             0.0000000000
     19365       166  SAPS      H10X           -8.7424617042      -33.1451989556       -8.7946441639  MEMB      166             0.0000000000
     19366       166  SAPS      H10Y           -7.5766575336      -33.4906939815       -7.5207696723  MEMB      166             0.0000000000
     19367       166  SAPS      C311           -7.4489394876      -34.6195845622       -9.3887046087  MEMB      166             0.0000000000
     19368       166  SAPS      H11X           -7.5583914334      -34.5974515067      -10.4651615856  MEMB      166             0.0000000000
     19369       166  SAPS      H11Y           -8.2376220392      -35.2794103079       -8.9421034196  MEMB      166             0.0000000000
     19370       166  SAPS      C312           -6.0724796433      -35.1206243582       -9.2067371719  MEMB      166             0.0000000000
     19371       166  SAPS      H12X           -5.1477889822      -34.5338794304       -9.4440152097  MEMB      166             0.0000000000
     19372       166  SAPS      H12Y           -5.7779456343      -35.9826661914       -9.8328447941  MEMB      166             0.0000000000
     19373       166  SAPS      C313           -6.3132532255      -35.4775020917       -7.7515071995  MEMB      166             0.0000000000
     19374       166  SAPS      H13X           -6.1322380638      -34.7615485107       -6.9834782634  MEMB      166             0.0000000000
     19375       166  SAPS      H13Y           -5.2654356419      -35.4346895778       -7.9281355421  MEMB      166             0.0000000000
     19376       166  SAPS      C314           -7.1982779457      -36.6354862068       -6.9925077922  MEMB      166             0.0000000000
     19377       166  SAPS      H14X           -6.7269821758      -37.5077122941       -7.2099986298  MEMB      166             0.0000000000
     19378       166  SAPS      H14Y           -8.2286868204      -36.6064312625       -7.2413529598  MEMB      166             0.0000000000
     19379       166  SAPS      C315           -7.0393542147      -37.8893707165       -5.9792608913  MEMB      166             0.0000000000
     19380       166  SAPS      H15X           -7.8290887593      -38.6135409966       -5.7246641311  MEMB      166             0.0000000000
     19381       166  SAPS      H15Y           -6.9470301266      -37.0994871348       -5.2847909980  MEMB      166             0.0000000000
     19382       166  SAPS      C316           -5.9579386304      -38.9448463535       -6.0015682428  MEMB      166             0.0000000000
     19383       166  SAPS      H16X           -5.0847498142      -38.6693260462       -6.5384930405  MEMB      166             0.0000000000
     19384       166  SAPS      H16Y           -5.9675211430      -39.8790496912       -6.4929886392  MEMB      166             0.0000000000
     19385       166  SAPS      C317           -5.6493708125      -39.4441913345       -4.7845364532  MEMB      166             0.0000000000
     19386       166  SAPS      H17X           -6.4096532803      -40.0871271794       -4.4089444233  MEMB      166             0.0000000000
     19387       166  SAPS      H17Y           -5.4155368718      -38.7470307079       -4.0081482221  MEMB      166             0.0000000000
     19388       166  SAPS      C318           -4.3435962360      -39.8061018544       -5.2918087551  MEMB      166             0.0000000000
     19389       166  SAPS      H18X           -3.6626450845      -39.0814821698       -5.0074089233  MEMB      166             0.0000000000
     19390       166  SAPS      H18Y           -3.9386730788      -40.6364766682       -5.0061368940  MEMB      166             0.0000000000
     19391       166  SAPS      H18Z           -3.6671573872      -40.2929818827       -4.7497165750  MEMB      166             0.0000000000
     19392       167  OSM       N              30.8900596807      -18.4362956329      -21.6719206640  MEMB      167             0.0000000000
     19393       167  OSM       C15            32.1758521183      -18.7960356472      -21.0098417009  MEMB      167             0.0000000000
     19394       167  OSM       H15A           32.9301675979      -18.9205629649      -21.7731724460  MEMB      167             0.0000000000
     19395       167  OSM       H15B           32.0805268773      -19.7316425135      -20.4706585123  MEMB      167             0.0000000000
     19396       167  OSM       H15C           32.4971612434      -18.0098308030      -20.3283956732  MEMB      167             0.0000000000
     19397       167  OSM       C14            30.3929093121      -19.5706995798      -22.5089204173  MEMB      167             0.0000000000
     19398       167  OSM       H14A           31.1764416307      -19.9519524980      -23.1498367936  MEMB      167             0.0000000000
     19399       167  OSM       H14B           29.5185003860      -19.2400377804      -23.0681213353  MEMB      167             0.0000000000
     19400       167  OSM       H14C           29.9965573778      -20.3700764598      -21.8901898505  MEMB      167             0.0000000000
     19401       167  OSM       C13            29.8784084434      -18.2037722276      -20.6201946784  MEMB      167             0.0000000000
     19402       167  OSM       H13A           28.8474059686      -18.2120549197      -20.9936004389  MEMB      167             0.0000000000
     19403       167  OSM       H13B           30.0124394590      -17.2692866532      -20.0837431334  MEMB      167             0.0000000000
     19404       167  OSM       H13C           29.8692255628      -19.0278323922      -19.9113977429  MEMB      167             0.0000000000
     19405       167  OSM       C12            31.0175743523      -17.2155312295      -22.5661482488  MEMB      167             0.0000000000
     19406       167  OSM       H12A           30.0204011081      -17.0264761729      -22.9596297573  MEMB      167             0.0000000000
     19407       167  OSM       H12B           31.6333799057      -17.4635783029      -23.4150161152  MEMB      167             0.0000000000
     19408       167  OSM       C11            31.5263874227      -15.8631083427      -21.9982904742  MEMB      167             0.0000000000
     19409       167  OSM       H11A           31.3468057496      -15.1477078633      -22.8370845242  MEMB      167             0.0000000000
     19410       167  OSM       H11B           32.6161894248      -15.9344942932      -21.7701693401  MEMB      167             0.0000000000
     19411       167  OSM       P              30.8441144320      -13.9856420961      -20.2179376790  MEMB      167             0.0000000000
     19412       167  OSM       O13            31.9503052302      -13.2081553945      -20.8300094631  MEMB      167             0.0000000000
     19413       167  OSM       O14            29.4651789360      -13.4613512918      -20.2530124060  MEMB      167             0.0000000000
     19414       167  OSM       O11            31.2411972648      -14.3208744261      -18.7178453114  MEMB      167             0.0000000000
     19415       167  OSM       O12            30.8072836203      -15.4553640006      -20.8532460535  MEMB      167             0.0000000000
     19416       167  OSM       C1S            31.1767399009      -15.6435601104      -18.2098116017  MEMB      167             0.0000000000
     19417       167  OSM       H1S            31.9627807914      -16.2716850764      -18.6721450202  MEMB      167             0.0000000000
     19418       167  OSM       H1T            30.1939954291      -16.1202535296      -18.4345015004  MEMB      167             0.0000000000
     19419       167  OSM       NF             31.5757792140      -16.9350179691      -16.1717198091  MEMB      167             0.0000000000
     19420       167  OSM       HNF            30.7845190463      -17.3208253145      -15.7258870539  MEMB      167             0.0000000000
     19421       167  OSM       C2S            31.3734001578      -15.6173668626      -16.6796146245  MEMB      167             0.0000000000
     19422       167  OSM       H2S            32.2477370198      -14.9773754190      -16.4123799138  MEMB      167             0.0000000000
     19423       167  OSM       C3S            30.1544564700      -14.9777861975      -16.0303780079  MEMB      167             0.0000000000
     19424       167  OSM       H3S            29.2471208992      -15.4874449406      -16.4233129729  MEMB      167             0.0000000000
     19425       167  OSM       O3             30.0199476919      -13.6303840683      -16.3307635116  MEMB      167             0.0000000000
     19426       167  OSM       HO3            30.7308977469      -13.4372663613      -16.9595704923  MEMB      167             0.0000000000
     19427       167  OSM       C4S            30.2105371263      -15.1276738631      -14.5412546935  MEMB      167             0.0000000000
     19428       167  OSM       H4S            31.1575951571      -14.8875427593      -14.0269449451  MEMB      167             0.0000000000
     19429       167  OSM       C5S            29.1213200035      -15.5426652762      -13.8812462132  MEMB      167             0.0000000000
     19430       167  OSM       H5S            28.1746704394      -15.6330694770      -14.4211629862  MEMB      167             0.0000000000
     19431       167  OSM       C6S            28.9644163071      -15.7775538416      -12.4339623818  MEMB      167             0.0000000000
     19432       167  OSM       H6S            29.6740544710      -16.5082201700      -12.0003429731  MEMB      167             0.0000000000
     19433       167  OSM       H6T            27.9036538018      -15.9163980294      -12.1027966460  MEMB      167             0.0000000000
     19434       167  OSM       C7S            29.2457878475      -14.6457353568      -11.6423837984  MEMB      167             0.0000000000
     19435       167  OSM       H7S            28.5017055470      -13.8784893430      -11.9240455244  MEMB      167             0.0000000000
     19436       167  OSM       H7T            30.3237719721      -14.3020073770      -11.7092414050  MEMB      167             0.0000000000
     19437       167  OSM       C8S            28.8144503702      -15.0755095776      -10.2096180838  MEMB      167             0.0000000000
     19438       167  OSM       H8S            29.5905915223      -15.6977376260       -9.7715170218  MEMB      167             0.0000000000
     19439       167  OSM       H8T            27.7206776602      -15.1260615947      -10.1145422572  MEMB      167             0.0000000000
     19440       167  OSM       C9S            28.4835670020      -14.1816325872       -9.1219059641  MEMB      167             0.0000000000
     19441       167  OSM       H9S            28.1764161409      -13.2280284455       -8.9265348014  MEMB      167             0.0000000000
     19442       167  OSM       H9T            29.3175970526      -13.9027677338       -9.8526485384  MEMB      167             0.0000000000
     19443       167  OSM       C10S           28.4755977622      -13.7396616798       -7.5632226246  MEMB      167             0.0000000000
     19444       167  OSM       H10S           27.6036579099      -14.2348817604       -7.7037591670  MEMB      167             0.0000000000
     19445       167  OSM       H10T           28.2870707501      -12.6408515655       -7.2026846953  MEMB      167             0.0000000000
     19446       167  OSM       C11S           29.1212155643      -14.3204422350       -6.4679248279  MEMB      167             0.0000000000
     19447       167  OSM       H11S           30.0313763636      -14.0638790632       -6.4579690507  MEMB      167             0.0000000000
     19448       167  OSM       H11T           29.4342246121      -15.3003145089       -6.7489298935  MEMB      167             0.0000000000
     19449       167  OSM       C12S           28.5576294041      -13.8472748357       -5.1650071314  MEMB      167             0.0000000000
     19450       167  OSM       H12S           27.5594690010      -13.8342223676       -5.3801284360  MEMB      167             0.0000000000
     19451       167  OSM       H12T           28.7048631303      -12.7605579196       -4.9538749083  MEMB      167             0.0000000000
     19452       167  OSM       C13S           28.6459364929      -14.8011925249       -3.9996769446  MEMB      167             0.0000000000
     19453       167  OSM       H13S           28.2008907939      -14.4383074395       -3.1063913900  MEMB      167             0.0000000000
     19454       167  OSM       H13T           29.6785544939      -14.9717244225       -4.0462849946  MEMB      167             0.0000000000
     19455       167  OSM       C14S           28.7285294782      -16.2762621499       -3.9999811452  MEMB      167             0.0000000000
     19456       167  OSM       H14S           29.3398368117      -16.4005577247       -4.9195719378  MEMB      167             0.0000000000
     19457       167  OSM       H14T           27.6371940732      -16.4736578222       -3.9118071013  MEMB      167             0.0000000000
     19458       167  OSM       C15S           28.7329746106      -17.3881050596       -2.9943843461  MEMB      167             0.0000000000
     19459       167  OSM       H15S           29.6805454142      -17.9674201436       -2.9311128812  MEMB      167             0.0000000000
     19460       167  OSM       H15T           27.9185475700      -18.1505593840       -3.2113513075  MEMB      167             0.0000000000
     19461       167  OSM       C16S           28.3141905968      -16.8471705618       -1.8286823045  MEMB      167             0.0000000000
     19462       167  OSM       H16S           27.9373882309      -17.7125472638       -1.3057735004  MEMB      167             0.0000000000
     19463       167  OSM       H16T           27.5665953714      -16.0430529977       -1.9498793975  MEMB      167             0.0000000000
     19464       167  OSM       C17S           29.5207096340      -16.2805545446       -1.3265605030  MEMB      167             0.0000000000
     19465       167  OSM       H17S           29.9012054189      -15.4751571250       -1.8535386073  MEMB      167             0.0000000000
     19466       167  OSM       H17T           30.3074254567      -17.1171329181       -1.3938342448  MEMB      167             0.0000000000
     19467       167  OSM       C18S           28.8474887727      -15.6405117047       -0.1632041612  MEMB      167             0.0000000000
     19468       167  OSM       H18S           29.4782771924      -15.3865564207        0.7488935477  MEMB      167             0.0000000000
     19469       167  OSM       H18T           28.3277870745      -16.5707421614        0.2722755423  MEMB      167             0.0000000000
     19470       167  OSM       H18U           29.0944983939      -14.6424256012        0.1272814953  MEMB      167             0.0000000000
     19471       167  OSM       C1F            32.6269410119      -17.6816800295      -16.4072931623  MEMB      167             0.0000000000
     19472       167  OSM       OF             33.5020103064      -17.3866336540      -17.2037708275  MEMB      167             0.0000000000
     19473       167  OSM       C2F            32.6050907485      -18.9573771873      -15.6778121771  MEMB      167             0.0000000000
     19474       167  OSM       H2F            32.5125930353      -19.7662556142      -16.4277357967  MEMB      167             0.0000000000
     19475       167  OSM       H2G            31.7046539007      -19.0053118592      -15.0230672370  MEMB      167             0.0000000000
     19476       167  OSM       C3F            33.8620682164      -19.0697062632      -14.8041915002  MEMB      167             0.0000000000
     19477       167  OSM       H3F            34.7879409143      -18.8460748479      -15.3790228421  MEMB      167             0.0000000000
     19478       167  OSM       H3G            33.9232040164      -20.1337894325      -14.4863983378  MEMB      167             0.0000000000
     19479       167  OSM       C4F            33.8564703580      -18.1134445050      -13.5944819389  MEMB      167             0.0000000000
     19480       167  OSM       H4F            33.6473816502      -17.0661233656      -13.9042942866  MEMB      167             0.0000000000
     19481       167  OSM       H4G            34.8793632661      -18.0851623946      -13.1566730145  MEMB      167             0.0000000000
     19482       167  OSM       C5F            32.8634377980      -18.5574629675      -12.5192363963  MEMB      167             0.0000000000
     19483       167  OSM       H5F            32.9845438220      -19.6475746982      -12.3696483662  MEMB      167             0.0000000000
     19484       167  OSM       H5G            31.8187785145      -18.3852696357      -12.8440455956  MEMB      167             0.0000000000
     19485       167  OSM       C6F            33.0735075437      -17.8658428477      -11.1772143624  MEMB      167             0.0000000000
     19486       167  OSM       H6F            32.8715414964      -16.7747973356      -11.2404790265  MEMB      167             0.0000000000
     19487       167  OSM       H6G            34.1364147977      -18.0300273439      -10.8726248815  MEMB      167             0.0000000000
     19488       167  OSM       C7F            32.1552859121      -18.4284478816      -10.0966127853  MEMB      167             0.0000000000
     19489       167  OSM       H7F            32.5025082568      -19.4711372699       -9.9564263781  MEMB      167             0.0000000000
     19490       167  OSM       H7G            31.0958311497      -18.5012862762      -10.4299086968  MEMB      167             0.0000000000
     19491       167  OSM       C8F            32.2365401561      -17.5503366657       -8.8412850302  MEMB      167             0.0000000000
     19492       167  OSM       H8F            31.7720958017      -16.5630517047       -9.0232801719  MEMB      167             0.0000000000
     19493       167  OSM       H8G            33.2970101427      -17.3642842187       -8.5915290478  MEMB      167             0.0000000000
     19494       167  OSM       C9F            31.5364105229      -18.1236757948       -7.6774240137  MEMB      167             0.0000000000
     19495       167  OSM       H9F            30.5487814920      -18.5437330155       -7.8818928496  MEMB      167             0.0000000000
     19496       167  OSM       C10F           32.0234867348      -18.1649501527       -6.4474158536  MEMB      167             0.0000000000
     19497       167  OSM       H10F           31.4857693226      -18.7609201078       -5.7554469897  MEMB      167             0.0000000000
     19498       167  OSM       C11F           33.3275497011      -17.6861528607       -5.9156135220  MEMB      167             0.0000000000
     19499       167  OSM       H11F           33.9364745825      -17.2279959717       -6.7004625367  MEMB      167             0.0000000000
     19500       167  OSM       H11G           33.8110938309      -18.5881600748       -5.6246083202  MEMB      167             0.0000000000
     19501       167  OSM       C12F           33.3445100308      -16.8390027634       -4.6528874780  MEMB      167             0.0000000000
     19502       167  OSM       H12F           32.6061321179      -16.1394464144       -4.9405804235  MEMB      167             0.0000000000
     19503       167  OSM       H12G           34.2288316013      -16.1870381079       -4.4854172642  MEMB      167             0.0000000000
     19504       167  OSM       C13F           32.7855609933      -17.5178324757       -3.4024169066  MEMB      167             0.0000000000
     19505       167  OSM       H13F           31.6961053238      -17.6931109044       -3.4942343066  MEMB      167             0.0000000000
     19506       167  OSM       H13G           33.0100682162      -16.9087408693       -2.5193197858  MEMB      167             0.0000000000
     19507       167  OSM       C14F           33.4391279595      -18.7287840101       -2.8968488837  MEMB      167             0.0000000000
     19508       167  OSM       H14F           34.4488133936      -18.5279848324       -2.7409393770  MEMB      167             0.0000000000
     19509       167  OSM       H14G           33.3546391381      -19.5570994129       -3.5986917302  MEMB      167             0.0000000000
     19510       167  OSM       C15F           33.3771842112      -19.0608102177       -1.4300351671  MEMB      167             0.0000000000
     19511       167  OSM       H15F           34.0509286903      -19.9528362952       -1.3594947744  MEMB      167             0.0000000000
     19512       167  OSM       H15G           32.3205512271      -19.3128068031       -1.2910727174  MEMB      167             0.0000000000
     19513       167  OSM       C16F           33.8524345886      -18.0585986329       -0.3613310166  MEMB      167             0.0000000000
     19514       167  OSM       H16F           33.5601647014      -16.9960827908       -0.5313799817  MEMB      167             0.0000000000
     19515       167  OSM       H16G           34.9537088480      -18.0264485552       -0.2883595728  MEMB      167             0.0000000000
     19516       167  OSM       C17F           33.1538239155      -18.5016278877        0.9310847840  MEMB      167             0.0000000000
     19517       167  OSM       H17F           32.1836703204      -18.6879680142        0.5355206264  MEMB      167             0.0000000000
     19518       167  OSM       H17G           33.2416922463      -17.7269587927        1.7319170154  MEMB      167             0.0000000000
     19519       167  OSM       C18F           33.0796064631      -19.9519923219        1.4078149306  MEMB      167             0.0000000000
     19520       167  OSM       H18F           33.8438219795      -19.8548954259        2.1091086791  MEMB      167             0.0000000000
     19521       167  OSM       H18G           33.3529977903      -20.7126666137        0.6712875408  MEMB      167             0.0000000000
     19522       167  OSM       H18H           32.8511066399      -20.3790137085        2.3845049804  MEMB      167             0.0000000000
     19523       168  SAPS      N              -2.2426674808      -35.6928544932      -21.1434522143  MEMB      168             0.0000000000
     19524       168  SAPS      HN1            -2.7048577813      -36.2189617816      -21.9092701414  MEMB      168             0.0000000000
     19525       168  SAPS      HN2            -1.9928129060      -36.5155704205      -20.5679375473  MEMB      168             0.0000000000
     19526       168  SAPS      HN3            -2.8708975333      -35.2605915781      -20.4253919663  MEMB      168             0.0000000000
     19527       168  SAPS      C12            -0.9760727384      -34.9827528916      -21.2769378558  MEMB      168             0.0000000000
     19528       168  SAPS      H12A           -0.2864350503      -35.6781301335      -21.7272234653  MEMB      168             0.0000000000
     19529       168  SAPS      C13            -1.4323030700      -33.8346966928      -22.1714253142  MEMB      168             0.0000000000
     19530       168  SAPS      O13A           -2.6646943044      -33.5853778258      -22.3825822893  MEMB      168             0.0000000000
     19531       168  SAPS      O13B           -0.5212260854      -33.1082457516      -22.6116555351  MEMB      168             0.0000000000
     19532       168  SAPS      C11            -0.2532603516      -34.4649012374      -19.9537439511  MEMB      168             0.0000000000
     19533       168  SAPS      H11A           -0.9377187778      -33.8101024572      -19.3784400361  MEMB      168             0.0000000000
     19534       168  SAPS      H11B            0.6167501044      -33.8392062436      -20.2411385525  MEMB      168             0.0000000000
     19535       168  SAPS      P               1.5275048724      -35.6997064396      -18.2762218169  MEMB      168             0.0000000000
     19536       168  SAPS      O13             1.5416790917      -37.0573003700      -17.6988710888  MEMB      168             0.0000000000
     19537       168  SAPS      O14             2.7087774668      -35.2550058753      -19.0209255094  MEMB      168             0.0000000000
     19538       168  SAPS      O12             0.2329221751      -35.5279929262      -19.1558833415  MEMB      168             0.0000000000
     19539       168  SAPS      O11             1.1909101253      -34.6861992950      -17.1071654491  MEMB      168             0.0000000000
     19540       168  SAPS      C1              1.8325442519      -33.4183401016      -17.0297286636  MEMB      168             0.0000000000
     19541       168  SAPS      HA              2.8924928190      -33.4997114920      -17.3777259143  MEMB      168             0.0000000000
     19542       168  SAPS      HB              1.3741867722      -32.7171996976      -17.7506568363  MEMB      168             0.0000000000
     19543       168  SAPS      C2              1.7117153997      -32.7962674735      -15.5755511418  MEMB      168             0.0000000000
     19544       168  SAPS      HS              2.1914645840      -31.7800079966      -15.5780733760  MEMB      168             0.0000000000
     19545       168  SAPS      O21             2.2799979938      -33.5786683539      -14.5440282053  MEMB      168             0.0000000000
     19546       168  SAPS      C21             3.4778823631      -33.6943172416      -14.7837588001  MEMB      168             0.0000000000
     19547       168  SAPS      O22             4.1037006016      -32.9561426961      -15.5593424823  MEMB      168             0.0000000000
     19548       168  SAPS      C22             3.8542886891      -34.8375816427      -13.8072172657  MEMB      168             0.0000000000
     19549       168  SAPS      H2R             3.8522126287      -35.8387024542      -14.2547797098  MEMB      168             0.0000000000
     19550       168  SAPS      H2S             4.7883155409      -35.2235947494      -13.9793291547  MEMB      168             0.0000000000
     19551       168  SAPS      C3              0.2938840542      -32.6152369348      -15.0523429776  MEMB      168             0.0000000000
     19552       168  SAPS      HX             -0.2151970638      -32.0914909955      -15.8713798531  MEMB      168             0.0000000000
     19553       168  SAPS      HY              0.3605664692      -31.9804264001      -14.1376032105  MEMB      168             0.0000000000
     19554       168  SAPS      O31            -0.3450724679      -33.8685122932      -14.7646576884  MEMB      168             0.0000000000
     19555       168  SAPS      C31            -1.2278812340      -33.8780188969      -13.7888935470  MEMB      168             0.0000000000
     19556       168  SAPS      O32            -1.5420003440      -32.9517329450      -13.0683927117  MEMB      168             0.0000000000
     19557       168  SAPS      C32            -1.8067639134      -35.1889540450      -13.6092683653  MEMB      168             0.0000000000
     19558       168  SAPS      H2X            -2.2854628930      -35.5993938725      -14.5038012425  MEMB      168             0.0000000000
     19559       168  SAPS      H2Y            -2.5845899931      -35.2003658264      -12.8180982024  MEMB      168             0.0000000000
     19560       168  SAPS      C23             3.8052071814      -34.5248227738      -12.2454900364  MEMB      168             0.0000000000
     19561       168  SAPS      H3R             4.2442275033      -35.3951304971      -11.7038299697  MEMB      168             0.0000000000
     19562       168  SAPS      H3S             2.7222551535      -34.5678048587      -12.0817036583  MEMB      168             0.0000000000
     19563       168  SAPS      C24             4.3546922564      -33.1491759928      -11.6586182812  MEMB      168             0.0000000000
     19564       168  SAPS      H4R             4.0211380360      -32.3642317227      -12.3612672612  MEMB      168             0.0000000000
     19565       168  SAPS      H4S             5.4192484854      -32.8114601059      -11.5940402782  MEMB      168             0.0000000000
     19566       168  SAPS      C25             4.2947077979      -32.9156934039      -10.2126427026  MEMB      168             0.0000000000
     19567       168  SAPS      H5R             4.6157952106      -33.6790509628       -9.5064205257  MEMB      168             0.0000000000
     19568       168  SAPS      C26             3.7317853510      -31.8756113932       -9.7110341869  MEMB      168             0.0000000000
     19569       168  SAPS      H6R             3.7029852113      -31.8426625966       -8.6275824444  MEMB      168             0.0000000000
     19570       168  SAPS      C27             3.0660384230      -30.8294031746      -10.5325308652  MEMB      168             0.0000000000
     19571       168  SAPS      H7R             3.5758995921      -30.5552029448      -11.4861257431  MEMB      168             0.0000000000
     19572       168  SAPS      H7S             3.0689659871      -29.9199771859       -9.9141656494  MEMB      168             0.0000000000
     19573       168  SAPS      C28             1.7069416889      -31.4380649219      -10.8055181309  MEMB      168             0.0000000000
     19574       168  SAPS      H8R             1.4293836664      -31.5720185479      -11.8660635888  MEMB      168             0.0000000000
     19575       168  SAPS      C29             0.7299211367      -31.5976829756       -9.9092252307  MEMB      168             0.0000000000
     19576       168  SAPS      H9R            -0.2527067867      -31.9126245946      -10.3046330978  MEMB      168             0.0000000000
     19577       168  SAPS      C210            0.7738599161      -31.1952485458       -8.4630169464  MEMB      168             0.0000000000
     19578       168  SAPS      H10R            1.7227544425      -30.6805029265       -8.2191713122  MEMB      168             0.0000000000
     19579       168  SAPS      H10S            0.6999419788      -32.1215071932       -7.8857389822  MEMB      168             0.0000000000
     19580       168  SAPS      C211           -0.2954112730      -30.3409947179       -7.8927778999  MEMB      168             0.0000000000
     19581       168  SAPS      H11R           -0.0475119980      -29.2639977926       -7.8731612094  MEMB      168             0.0000000000
     19582       168  SAPS      C212           -1.5215546487      -30.7488387778       -7.5171078268  MEMB      168             0.0000000000
     19583       168  SAPS      H12R           -2.1680290142      -30.0516232287       -6.9812863086  MEMB      168             0.0000000000
     19584       168  SAPS      C213           -2.1611800262      -32.0834196308       -7.5465763607  MEMB      168             0.0000000000
     19585       168  SAPS      H13R           -1.3333414999      -32.7900401380       -7.6416748368  MEMB      168             0.0000000000
     19586       168  SAPS      H13S           -2.8467242392      -32.2002616126       -8.4245870260  MEMB      168             0.0000000000
     19587       168  SAPS      C214           -2.9231724153      -32.2172329778       -6.2475550710  MEMB      168             0.0000000000
     19588       168  SAPS      H14R           -4.0163935283      -32.1675791677       -6.3461379742  MEMB      168             0.0000000000
     19589       168  SAPS      C215           -2.4165481526      -32.3529987404       -5.0138440166  MEMB      168             0.0000000000
     19590       168  SAPS      H15R           -3.1015675229      -32.3125240088       -4.1586383459  MEMB      168             0.0000000000
     19591       168  SAPS      C216           -0.9604742698      -32.4130475251       -4.6497204734  MEMB      168             0.0000000000
     19592       168  SAPS      H16R           -0.8373982772      -32.1580399553       -3.5778500163  MEMB      168             0.0000000000
     19593       168  SAPS      H16S           -0.3717884191      -31.6643767830       -5.2191310798  MEMB      168             0.0000000000
     19594       168  SAPS      C217           -0.3447533226      -33.7928643125       -4.9320752737  MEMB      168             0.0000000000
     19595       168  SAPS      H17R            0.7411571347      -33.7586063273       -4.7241757725  MEMB      168             0.0000000000
     19596       168  SAPS      H17S           -0.4672014376      -34.0667368672       -6.0047399528  MEMB      168             0.0000000000
     19597       168  SAPS      C218           -0.9033489759      -34.9260058681       -4.0872366384  MEMB      168             0.0000000000
     19598       168  SAPS      H18R           -0.3763919982      -35.8544916147       -4.4100849567  MEMB      168             0.0000000000
     19599       168  SAPS      H18S           -1.9480778554      -34.9714230285       -4.3590084807  MEMB      168             0.0000000000
     19600       168  SAPS      C219           -0.7409859384      -34.7608588519       -2.5893270935  MEMB      168             0.0000000000
     19601       168  SAPS      H19R           -1.4929339168      -34.1235390831       -2.0689570138  MEMB      168             0.0000000000
     19602       168  SAPS      H19S            0.2439337866      -34.2555379407       -2.4459536828  MEMB      168             0.0000000000
     19603       168  SAPS      C220           -0.6764931005      -36.1036480762       -1.9044426408  MEMB      168             0.0000000000
     19604       168  SAPS      H20R           -0.0940800186      -35.8421741358       -1.0213000995  MEMB      168             0.0000000000
     19605       168  SAPS      H20S           -0.0435945050      -36.8456071449       -2.4236801352  MEMB      168             0.0000000000
     19606       168  SAPS      H20T           -1.6664742850      -36.5358510604       -1.6237811941  MEMB      168             0.0000000000
     19607       168  SAPS      C33            -0.6276675263      -36.0516760304      -13.3159705839  MEMB      168             0.0000000000
     19608       168  SAPS      H3X            -0.0491963136      -36.4216199192      -14.2000207261  MEMB      168             0.0000000000
     19609       168  SAPS      H3Y            -1.4190083927      -36.6904289980      -12.9908630239  MEMB      168             0.0000000000
     19610       168  SAPS      C34             0.1040364179      -36.1251931242      -12.0041093130  MEMB      168             0.0000000000
     19611       168  SAPS      H4X             0.7412471764      -35.2528758132      -12.0988543665  MEMB      168             0.0000000000
     19612       168  SAPS      H4Y             0.7318701429      -37.0628866719      -12.0224993881  MEMB      168             0.0000000000
     19613       168  SAPS      C35            -0.7347479470      -36.1732487779      -10.7053741055  MEMB      168             0.0000000000
     19614       168  SAPS      H5X            -1.4259513319      -37.0285191448      -10.5929225565  MEMB      168             0.0000000000
     19615       168  SAPS      H5Y            -1.3452857720      -35.2577056702      -10.6378670160  MEMB      168             0.0000000000
     19616       168  SAPS      C36             0.3012755999      -36.3006841234       -9.6070292759  MEMB      168             0.0000000000
     19617       168  SAPS      H6X             0.8047898966      -35.3107388366       -9.6725601294  MEMB      168             0.0000000000
     19618       168  SAPS      H6Y             1.0329450478      -37.0867504286       -9.9087967538  MEMB      168             0.0000000000
     19619       168  SAPS      C37            -0.1605371253      -36.5736225748       -8.1769825634  MEMB      168             0.0000000000
     19620       168  SAPS      H7X            -0.6982528099      -37.5408309954       -8.0427462275  MEMB      168             0.0000000000
     19621       168  SAPS      H7Y            -0.8155947501      -35.7357510748       -7.8457038426  MEMB      168             0.0000000000
     19622       168  SAPS      C38             1.0211373362      -36.6562804577       -7.1989402951  MEMB      168             0.0000000000
     19623       168  SAPS      H8X             1.4622157149      -37.6750312252       -7.2434897363  MEMB      168             0.0000000000
     19624       168  SAPS      H8Y             0.5600398557      -36.4974933475       -6.2039486156  MEMB      168             0.0000000000
     19625       168  SAPS      C39             2.1627436707      -35.6879130671       -7.5171260008  MEMB      168             0.0000000000
     19626       168  SAPS      H9X             1.7141001499      -34.7664933062       -7.9585773079  MEMB      168             0.0000000000
     19627       168  SAPS      H9Y             2.7935181281      -36.1530669349       -8.3102931366  MEMB      168             0.0000000000
     19628       168  SAPS      C310            3.0711133142      -35.2378144841       -6.3580475293  MEMB      168             0.0000000000
     19629       168  SAPS      H10X            4.0103847022      -35.8316213643       -6.3542272504  MEMB      168             0.0000000000
     19630       168  SAPS      H10Y            2.5954780587      -35.3549032431       -5.3619557958  MEMB      168             0.0000000000
     19631       168  SAPS      C311            3.4299707268      -33.7718791844       -6.6191520228  MEMB      168             0.0000000000
     19632       168  SAPS      H11X            2.4801060638      -33.2045660168       -6.7579251288  MEMB      168             0.0000000000
     19633       168  SAPS      H11Y            3.9622317723      -33.7755844577       -7.5966361752  MEMB      168             0.0000000000
     19634       168  SAPS      C312            4.3094074027      -33.0436698386       -5.5876516482  MEMB      168             0.0000000000
     19635       168  SAPS      H12X            4.3925038191      -31.9975609855       -5.9711321371  MEMB      168             0.0000000000
     19636       168  SAPS      H12Y            5.3195414199      -33.4971557295       -5.5613834611  MEMB      168             0.0000000000
     19637       168  SAPS      C313            3.7845055980      -33.0049884396       -4.1458180937  MEMB      168             0.0000000000
     19638       168  SAPS      H13X            3.7152148613      -34.0243575547       -3.7048124102  MEMB      168             0.0000000000
     19639       168  SAPS      H13Y            2.7487496717      -32.6232339165       -4.2093797007  MEMB      168             0.0000000000
     19640       168  SAPS      C314            4.5944797547      -32.1002305970       -3.1888837278  MEMB      168             0.0000000000
     19641       168  SAPS      H14X            4.7505530205      -31.1016389254       -3.6567053554  MEMB      168             0.0000000000
     19642       168  SAPS      H14Y            5.5966750867      -32.5477139340       -2.9913322400  MEMB      168             0.0000000000
     19643       168  SAPS      C315            3.8189417307      -31.8979730261       -1.8738604840  MEMB      168             0.0000000000
     19644       168  SAPS      H15X            4.3720976274      -31.2140328453       -1.1826587843  MEMB      168             0.0000000000
     19645       168  SAPS      H15Y            3.8320865238      -32.8860445330       -1.3663202322  MEMB      168             0.0000000000
     19646       168  SAPS      C316            2.3340023518      -31.4595221141       -2.1702349942  MEMB      168             0.0000000000
     19647       168  SAPS      H16X            1.7474069521      -32.2713591688       -2.6177713652  MEMB      168             0.0000000000
     19648       168  SAPS      H16Y            2.3189955995      -30.4737216405       -2.6895529924  MEMB      168             0.0000000000
     19649       168  SAPS      C317            1.3777984233      -31.3281096229       -1.0098864779  MEMB      168             0.0000000000
     19650       168  SAPS      H17X            2.2383994065      -30.9797646268       -0.6218015059  MEMB      168             0.0000000000
     19651       168  SAPS      H17Y            1.2089608073      -32.1023429420       -0.2940472676  MEMB      168             0.0000000000
     19652       168  SAPS      C318            0.2976388763      -30.3153031000       -0.8276338296  MEMB      168             0.0000000000
     19653       168  SAPS      H18X            0.5581834494      -29.3385056348       -1.2848812397  MEMB      168             0.0000000000
     19654       168  SAPS      H18Y            0.0735153313      -30.1769588025        0.2629355773  MEMB      168             0.0000000000
     19655       168  SAPS      H18Z           -0.5436030268      -30.8433376072       -1.2872756101  MEMB      168             0.0000000000
     19656       169  SAPE      N             -16.0197517860      -29.2264351718      -22.1815812568  MEMB      169             0.0000000000
     19657       169  SAPE      HN1           -15.2894557044      -28.4930765031      -22.3420323575  MEMB      169             0.0000000000
     19658       169  SAPE      HN2           -16.6996138550      -29.3175209511      -22.9649549735  MEMB      169             0.0000000000
     19659       169  SAPE      HN3           -16.5628884934      -28.9852119706      -21.3219962634  MEMB      169             0.0000000000
     19660       169  SAPE      C12           -15.3160658122      -30.5368428482      -21.9267382170  MEMB      169             0.0000000000
     19661       169  SAPE      H12A          -14.5172527839      -30.2742240360      -21.1979447035  MEMB      169             0.0000000000
     19662       169  SAPE      H12B          -14.8547773824      -30.8614511967      -22.8773622955  MEMB      169             0.0000000000
     19663       169  SAPE      C11           -16.2561267563      -31.5772634801      -21.2913076552  MEMB      169             0.0000000000
     19664       169  SAPE      H11A          -15.7662413295      -32.5811449999      -21.1893035569  MEMB      169             0.0000000000
     19665       169  SAPE      H11B          -17.1747225386      -31.7251766347      -21.9011212583  MEMB      169             0.0000000000
     19666       169  SAPE      P             -17.1284262803      -32.0723007613      -18.8992260547  MEMB      169             0.0000000000
     19667       169  SAPE      O13           -18.5027022590      -32.5127866853      -19.2260496733  MEMB      169             0.0000000000
     19668       169  SAPE      O14           -16.0465193711      -33.0768155254      -18.7781407953  MEMB      169             0.0000000000
     19669       169  SAPE      O12           -16.6356006493      -31.0586057317      -20.0251841282  MEMB      169             0.0000000000
     19670       169  SAPE      O11           -17.1232217237      -31.0947607332      -17.6816122602  MEMB      169             0.0000000000
     19671       169  SAPE      C1            -17.9344751599      -29.9248890862      -17.5935971360  MEMB      169             0.0000000000
     19672       169  SAPE      HA            -17.2535152958      -29.0636253196      -17.5135764030  MEMB      169             0.0000000000
     19673       169  SAPE      HB            -18.5633680250      -29.7267236032      -18.5002605590  MEMB      169             0.0000000000
     19674       169  SAPE      C2            -18.8431407886      -30.0074111682      -16.3227978330  MEMB      169             0.0000000000
     19675       169  SAPE      HS            -19.6267849937      -29.2166841326      -16.4214961093  MEMB      169             0.0000000000
     19676       169  SAPE      O21           -18.0969132655      -29.8389168070      -15.0963866278  MEMB      169             0.0000000000
     19677       169  SAPE      C21           -17.5552839497      -28.6595764649      -14.9380948362  MEMB      169             0.0000000000
     19678       169  SAPE      O22           -17.7297706505      -27.6927427894      -15.6624372354  MEMB      169             0.0000000000
     19679       169  SAPE      C22           -16.6806509770      -28.6228231989      -13.6936467646  MEMB      169             0.0000000000
     19680       169  SAPE      H2R           -17.0481869366      -29.2095877434      -12.8462303528  MEMB      169             0.0000000000
     19681       169  SAPE      H2S           -15.8028619632      -29.2141327104      -13.8497139974  MEMB      169             0.0000000000
     19682       169  SAPE      C3            -19.5966751078      -31.3675154610      -16.2256092671  MEMB      169             0.0000000000
     19683       169  SAPE      HX            -18.8680665578      -32.2017128495      -16.3479134831  MEMB      169             0.0000000000
     19684       169  SAPE      HY            -20.2618462477      -31.3861993167      -17.1150393132  MEMB      169             0.0000000000
     19685       169  SAPE      O31           -20.3781557279      -31.4871285804      -15.0026258282  MEMB      169             0.0000000000
     19686       169  SAPE      C31           -19.8089708523      -32.2115819743      -14.0294287946  MEMB      169             0.0000000000
     19687       169  SAPE      O32           -18.8324909924      -32.9189743706      -14.1412780436  MEMB      169             0.0000000000
     19688       169  SAPE      C32           -20.4996212901      -32.0001794198      -12.6924290157  MEMB      169             0.0000000000
     19689       169  SAPE      H2X           -19.7950639470      -32.3549678241      -11.9114183436  MEMB      169             0.0000000000
     19690       169  SAPE      H2Y           -21.4211419868      -32.6066300056      -12.6009063018  MEMB      169             0.0000000000
     19691       169  SAPE      C23           -16.2186982250      -27.1824136943      -13.4397873931  MEMB      169             0.0000000000
     19692       169  SAPE      H3R           -17.0526323345      -26.4598366463      -13.5657748699  MEMB      169             0.0000000000
     19693       169  SAPE      H3S           -15.4656470762      -26.8854067413      -14.2119604736  MEMB      169             0.0000000000
     19694       169  SAPE      C24           -15.5560469228      -27.0401153232      -12.0767778835  MEMB      169             0.0000000000
     19695       169  SAPE      H4R           -15.0553936993      -26.0507527328      -12.1234430911  MEMB      169             0.0000000000
     19696       169  SAPE      H4S           -14.7543467081      -27.8007804189      -11.9792018216  MEMB      169             0.0000000000
     19697       169  SAPE      C25           -16.5126152798      -27.0385526118      -10.9111335838  MEMB      169             0.0000000000
     19698       169  SAPE      H5R           -17.0353161914      -26.0779434526      -10.8369539358  MEMB      169             0.0000000000
     19699       169  SAPE      C26           -16.8389883265      -28.0237556848      -10.0438882191  MEMB      169             0.0000000000
     19700       169  SAPE      H6R           -17.4640482606      -27.7452046431       -9.1740081181  MEMB      169             0.0000000000
     19701       169  SAPE      C27           -16.2959101955      -29.4403666594      -10.0382249320  MEMB      169             0.0000000000
     19702       169  SAPE      H7R           -15.5552233910      -29.5419225810      -10.8555695807  MEMB      169             0.0000000000
     19703       169  SAPE      H7S           -17.0927077782      -30.2002604014      -10.2312320340  MEMB      169             0.0000000000
     19704       169  SAPE      C28           -15.5649074661      -29.8105803750       -8.7842691806  MEMB      169             0.0000000000
     19705       169  SAPE      H8R           -14.4852598994      -29.6081914404       -8.8715689825  MEMB      169             0.0000000000
     19706       169  SAPE      C29           -16.0880700051      -30.1862700001       -7.5961375009  MEMB      169             0.0000000000
     19707       169  SAPE      H9R           -15.4167185307      -30.1616365163       -6.7298943267  MEMB      169             0.0000000000
     19708       169  SAPE      C210          -17.5508877493      -30.3214080347       -7.2261151350  MEMB      169             0.0000000000
     19709       169  SAPE      H10R          -18.0536659506      -29.5165862005       -7.7772524975  MEMB      169             0.0000000000
     19710       169  SAPE      H10S          -17.7029636360      -30.1720957998       -6.1421357945  MEMB      169             0.0000000000
     19711       169  SAPE      C211          -18.4337690694      -31.4093854139       -7.6792172982  MEMB      169             0.0000000000
     19712       169  SAPE      H11R          -18.3612539971      -31.4780746004       -8.7777211056  MEMB      169             0.0000000000
     19713       169  SAPE      C212          -19.2341922895      -32.2978476181       -7.0292373864  MEMB      169             0.0000000000
     19714       169  SAPE      H12R          -19.7164055779      -33.0776492317       -7.6585402227  MEMB      169             0.0000000000
     19715       169  SAPE      C213          -19.5081964285      -32.4896503513       -5.5632407538  MEMB      169             0.0000000000
     19716       169  SAPE      H13R          -20.0555132394      -33.4683554565       -5.4758397550  MEMB      169             0.0000000000
     19717       169  SAPE      H13S          -20.1942994934      -31.6847925488       -5.3588789497  MEMB      169             0.0000000000
     19718       169  SAPE      C214          -18.4229205937      -32.3248008535       -4.5151720455  MEMB      169             0.0000000000
     19719       169  SAPE      H14R          -17.4446965074      -32.0849506034       -4.9463970905  MEMB      169             0.0000000000
     19720       169  SAPE      C215          -18.3549127473      -32.9214838010       -3.3288202371  MEMB      169             0.0000000000
     19721       169  SAPE      H15R          -17.3457122943      -33.1392544469       -2.9030697923  MEMB      169             0.0000000000
     19722       169  SAPE      C216          -19.3883605735      -33.8991845415       -2.8236463673  MEMB      169             0.0000000000
     19723       169  SAPE      H16R          -19.0626601203      -34.8927583829       -2.4283419678  MEMB      169             0.0000000000
     19724       169  SAPE      H16S          -20.2723150787      -34.0978591155       -3.4441536052  MEMB      169             0.0000000000
     19725       169  SAPE      C217          -19.7292917064      -33.1315973266       -1.6759831574  MEMB      169             0.0000000000
     19726       169  SAPE      H17R          -20.7830361083      -33.3891951132       -1.3743891337  MEMB      169             0.0000000000
     19727       169  SAPE      H17S          -19.6632499140      -32.0330368115       -1.7860292372  MEMB      169             0.0000000000
     19728       169  SAPE      C218          -18.8214440085      -33.5187755770       -0.6267157109  MEMB      169             0.0000000000
     19729       169  SAPE      H18R          -17.7076492667      -33.3042614885       -0.5276614370  MEMB      169             0.0000000000
     19730       169  SAPE      H18S          -18.7537673269      -34.6180359957       -0.6572428061  MEMB      169             0.0000000000
     19731       169  SAPE      C219          -19.7834401124      -32.9230003901        0.3734055476  MEMB      169             0.0000000000
     19732       169  SAPE      H19R          -18.7902333601      -33.1757523651        0.8491231395  MEMB      169             0.0000000000
     19733       169  SAPE      H19S          -20.6379116848      -33.3436031202        1.0587445147  MEMB      169             0.0000000000
     19734       169  SAPE      C220          -19.8878905323      -31.5804934459        0.3379978831  MEMB      169             0.0000000000
     19735       169  SAPE      H20R          -20.7085221143      -30.9887092973        0.7441927766  MEMB      169             0.0000000000
     19736       169  SAPE      H20S          -18.8355871732      -31.3278165460        0.3401815223  MEMB      169             0.0000000000
     19737       169  SAPE      H20T          -19.7500703301      -31.9050218976        1.3038148814  MEMB      169             0.0000000000
     19738       169  SAPE      C33           -20.8047112962      -30.5219547465      -12.4382172398  MEMB      169             0.0000000000
     19739       169  SAPE      H3X           -21.2362457932      -30.0683550130      -13.3615348010  MEMB      169             0.0000000000
     19740       169  SAPE      H3Y           -19.8565725607      -29.9858349062      -12.2111799785  MEMB      169             0.0000000000
     19741       169  SAPE      C34           -21.7728478970      -30.4218482463      -11.2617625406  MEMB      169             0.0000000000
     19742       169  SAPE      H4X           -22.5495153816      -31.2108667900      -11.3521622818  MEMB      169             0.0000000000
     19743       169  SAPE      H4Y           -22.3507018573      -29.5104329342      -11.2701897961  MEMB      169             0.0000000000
     19744       169  SAPE      C35           -21.0812141651      -30.3383891884       -9.8931358650  MEMB      169             0.0000000000
     19745       169  SAPE      H5X           -20.2912202618      -29.5538310756       -9.9139792432  MEMB      169             0.0000000000
     19746       169  SAPE      H5Y           -20.6360976314      -31.3183076149       -9.6988899998  MEMB      169             0.0000000000
     19747       169  SAPE      C36           -22.0649424593      -30.1328134880       -8.7447968526  MEMB      169             0.0000000000
     19748       169  SAPE      H6X           -22.9056105701      -30.8519376354       -8.8662632248  MEMB      169             0.0000000000
     19749       169  SAPE      H6Y           -22.3111286844      -29.0920416235       -8.7431903931  MEMB      169             0.0000000000
     19750       169  SAPE      C37           -21.6540063405      -29.8807761482       -7.3196539973  MEMB      169             0.0000000000
     19751       169  SAPE      H7X           -20.8415638212      -30.5879300685       -7.2708129065  MEMB      169             0.0000000000
     19752       169  SAPE      H7Y           -22.4875998483      -30.1099406501       -6.6167655091  MEMB      169             0.0000000000
     19753       169  SAPE      C38           -21.2213096082      -28.4492100408       -6.9417392154  MEMB      169             0.0000000000
     19754       169  SAPE      H8X           -22.0915226088      -27.7768479535       -6.7455336627  MEMB      169             0.0000000000
     19755       169  SAPE      H8Y           -20.6082081625      -27.9682058010       -7.7383017683  MEMB      169             0.0000000000
     19756       169  SAPE      C39           -20.4281979346      -28.5994970100       -5.6561177379  MEMB      169             0.0000000000
     19757       169  SAPE      H9X           -19.6831268635      -29.4003860984       -5.8608729260  MEMB      169             0.0000000000
     19758       169  SAPE      H9Y           -21.0972627580      -28.9699177517       -4.8458272790  MEMB      169             0.0000000000
     19759       169  SAPE      C310          -19.7799670313      -27.2902293807       -5.2401491704  MEMB      169             0.0000000000
     19760       169  SAPE      H10X          -20.5069718523      -26.4613416877       -5.2857848038  MEMB      169             0.0000000000
     19761       169  SAPE      H10Y          -18.9193925697      -27.0806778371       -5.9090586957  MEMB      169             0.0000000000
     19762       169  SAPE      C311          -19.3806158386      -27.2357527768       -3.8039918199  MEMB      169             0.0000000000
     19763       169  SAPE      H11X          -19.9531405737      -27.9708670550       -3.1783226297  MEMB      169             0.0000000000
     19764       169  SAPE      H11Y          -19.4618917098      -26.2232627940       -3.3339029509  MEMB      169             0.0000000000
     19765       169  SAPE      C312          -17.9950143951      -27.7044620139       -3.6299294759  MEMB      169             0.0000000000
     19766       169  SAPE      H12X          -17.9444894284      -28.8058633037       -3.7247936612  MEMB      169             0.0000000000
     19767       169  SAPE      H12Y          -17.9727378321      -27.4298069952       -2.5679376160  MEMB      169             0.0000000000
     19768       169  SAPE      C313          -16.7850920732      -27.2410564195       -4.3623009723  MEMB      169             0.0000000000
     19769       169  SAPE      H13X          -16.5434528018      -26.1072005607       -4.1715333658  MEMB      169             0.0000000000
     19770       169  SAPE      H13Y          -16.9087974891      -27.1325823013       -5.4162054911  MEMB      169             0.0000000000
     19771       169  SAPE      C314          -15.7580797506      -28.5529996013       -3.9846527172  MEMB      169             0.0000000000
     19772       169  SAPE      H14X          -15.1113700720      -28.0341502895       -4.5523082282  MEMB      169             0.0000000000
     19773       169  SAPE      H14Y          -15.4931869962      -29.2808009911       -4.7303301081  MEMB      169             0.0000000000
     19774       169  SAPE      C315          -15.0600870243      -29.0577033124       -2.5443795643  MEMB      169             0.0000000000
     19775       169  SAPE      H15X          -15.8500735694      -29.5929541164       -2.0710212665  MEMB      169             0.0000000000
     19776       169  SAPE      H15Y          -14.7339308795      -28.4142081689       -1.6852433155  MEMB      169             0.0000000000
     19777       169  SAPE      C316          -13.6346244441      -29.4999421805       -2.2233327789  MEMB      169             0.0000000000
     19778       169  SAPE      H16X          -13.3328623668      -29.4442315610       -1.1433319439  MEMB      169             0.0000000000
     19779       169  SAPE      H16Y          -13.0171464920      -28.6959053454       -2.5716514846  MEMB      169             0.0000000000
     19780       169  SAPE      C317          -13.3599381166      -30.8174190430       -2.8272717435  MEMB      169             0.0000000000
     19781       169  SAPE      H17X          -12.2619902151      -30.8751449432       -2.7809678747  MEMB      169             0.0000000000
     19782       169  SAPE      H17Y          -13.7369648131      -30.7461481811       -3.8681709729  MEMB      169             0.0000000000
     19783       169  SAPE      C318          -13.9631848010      -31.9837580189       -2.1042910302  MEMB      169             0.0000000000
     19784       169  SAPE      H18X          -13.5648790512      -32.9685984620       -2.3263272975  MEMB      169             0.0000000000
     19785       169  SAPE      H18Y          -15.0791202702      -31.9366705994       -2.1276693629  MEMB      169             0.0000000000
     19786       169  SAPE      H18Z          -13.5928085450      -31.9905002048       -1.0775420302  MEMB      169             0.0000000000
     19787       170  CHL1      C3              6.4785588635      -36.1072268228      -17.2788720605  MEMB      170             0.0000000000
     19788       170  CHL1      H3              5.7845555661      -36.7566701263      -16.6936434477  MEMB      170             0.0000000000
     19789       170  CHL1      O3              6.1235011208      -36.1555296759      -18.6408311032  MEMB      170             0.0000000000
     19790       170  CHL1      H3'             6.1768485532      -37.0964541776      -18.9111143194  MEMB      170             0.0000000000
     19791       170  CHL1      C4              6.5059519458      -34.6697512075      -16.7810229422  MEMB      170             0.0000000000
     19792       170  CHL1      H4A             7.2010329695      -34.0277309839      -17.3311749705  MEMB      170             0.0000000000
     19793       170  CHL1      H4B             5.4964098751      -34.1930452531      -16.9600580620  MEMB      170             0.0000000000
     19794       170  CHL1      C5              7.1009133040      -34.6924736974      -15.3851524067  MEMB      170             0.0000000000
     19795       170  CHL1      C6              6.5955914711      -34.0445363101      -14.4609664528  MEMB      170             0.0000000000
     19796       170  CHL1      H6              5.7266998279      -33.6857927828      -14.8209303915  MEMB      170             0.0000000000
     19797       170  CHL1      C7              6.6201569372      -34.4318213158      -13.0497480568  MEMB      170             0.0000000000
     19798       170  CHL1      H7A             6.0207097464      -33.6161926347      -12.9725043368  MEMB      170             0.0000000000
     19799       170  CHL1      H7B             6.0547782323      -35.3154670014      -12.6423528801  MEMB      170             0.0000000000
     19800       170  CHL1      C8              7.8499929263      -34.5612630128      -12.4294455320  MEMB      170             0.0000000000
     19801       170  CHL1      H8              8.2813673607      -33.5607762216      -12.5295574629  MEMB      170             0.0000000000
     19802       170  CHL1      C14             7.7476168867      -35.0222602843      -10.9822391158  MEMB      170             0.0000000000
     19803       170  CHL1      H14             7.1436310959      -35.9781443230      -10.9644215094  MEMB      170             0.0000000000
     19804       170  CHL1      C15             7.0928314604      -34.1661949294       -9.9230289857  MEMB      170             0.0000000000
     19805       170  CHL1      H15A            7.2626429443      -33.0710489024      -10.0303887827  MEMB      170             0.0000000000
     19806       170  CHL1      H15B            6.0730875455      -34.5038360238      -10.0337619093  MEMB      170             0.0000000000
     19807       170  CHL1      C16             7.5652987571      -34.7128922601       -8.5895960849  MEMB      170             0.0000000000
     19808       170  CHL1      H16A            7.8277424853      -33.8282057125       -7.9732215277  MEMB      170             0.0000000000
     19809       170  CHL1      H16B            6.7833384844      -35.2942175617       -8.0545152948  MEMB      170             0.0000000000
     19810       170  CHL1      C17             8.7676493064      -35.6329559570       -8.9447496379  MEMB      170             0.0000000000
     19811       170  CHL1      H17             8.3852515239      -36.6819626311       -8.9742653145  MEMB      170             0.0000000000
     19812       170  CHL1      C13             9.0886652594      -35.2866976446      -10.4072336601  MEMB      170             0.0000000000
     19813       170  CHL1      C18             9.9230566330      -33.9940036337      -10.4460224016  MEMB      170             0.0000000000
     19814       170  CHL1      H18A            9.5375544812      -33.2515357607       -9.7259856660  MEMB      170             0.0000000000
     19815       170  CHL1      H18B           10.9594262989      -34.2409058325      -10.1602148808  MEMB      170             0.0000000000
     19816       170  CHL1      H18C            9.9472007213      -33.5220445814      -11.4459748731  MEMB      170             0.0000000000
     19817       170  CHL1      C12             9.6790301458      -36.3711597290      -11.2764483972  MEMB      170             0.0000000000
     19818       170  CHL1      H12A           10.7013513254      -36.5522832251      -10.9141337734  MEMB      170             0.0000000000
     19819       170  CHL1      H12B            9.0809415350      -37.3083314938      -11.2195679655  MEMB      170             0.0000000000
     19820       170  CHL1      C11             9.7202286282      -35.9595657793      -12.7568035046  MEMB      170             0.0000000000
     19821       170  CHL1      H11A           10.3902301080      -35.0847580342      -12.8841352538  MEMB      170             0.0000000000
     19822       170  CHL1      H11B           10.0621684981      -36.8177816350      -13.3262291574  MEMB      170             0.0000000000
     19823       170  CHL1      C9              8.3615750748      -35.6741881148      -13.3249043631  MEMB      170             0.0000000000
     19824       170  CHL1      H9              7.7106286824      -36.5747081497      -13.1510918754  MEMB      170             0.0000000000
     19825       170  CHL1      C10             8.2640815253      -35.4471009655      -14.9005916012  MEMB      170             0.0000000000
     19826       170  CHL1      C19             9.3665336167      -34.4752304312      -15.2575864900  MEMB      170             0.0000000000
     19827       170  CHL1      H19A            9.2022269255      -33.8565742348      -16.1723678936  MEMB      170             0.0000000000
     19828       170  CHL1      H19B            9.3683473614      -33.8527711708      -14.3573003062  MEMB      170             0.0000000000
     19829       170  CHL1      H19C           10.3727319834      -34.9107333358      -15.2959352183  MEMB      170             0.0000000000
     19830       170  CHL1      C1              8.4027271678      -36.7030272417      -15.7184604726  MEMB      170             0.0000000000
     19831       170  CHL1      H1A             9.4940596997      -36.8692829463      -15.7074417456  MEMB      170             0.0000000000
     19832       170  CHL1      H1B             7.9131097725      -37.5380540769      -15.1896934981  MEMB      170             0.0000000000
     19833       170  CHL1      C2              7.9006165377      -36.6331339158      -17.1715618401  MEMB      170             0.0000000000
     19834       170  CHL1      H2A             7.9332472406      -37.6456929005      -17.6032382913  MEMB      170             0.0000000000
     19835       170  CHL1      H2B             8.5479549674      -35.9588567993      -17.7780939382  MEMB      170             0.0000000000
     19836       170  CHL1      C20             9.8259284452      -35.4897044669       -7.8397778253  MEMB      170             0.0000000000
     19837       170  CHL1      H20            10.1760771680      -34.4307371066       -7.8583807329  MEMB      170             0.0000000000
     19838       170  CHL1      C21            11.0977790862      -36.3516869788       -8.0230810382  MEMB      170             0.0000000000
     19839       170  CHL1      H21A           11.5530308204      -36.1557061493       -9.0124230801  MEMB      170             0.0000000000
     19840       170  CHL1      H21B           10.8796766530      -37.4310644652       -7.9194017190  MEMB      170             0.0000000000
     19841       170  CHL1      H21C           11.8812402683      -36.1100705409       -7.2706426941  MEMB      170             0.0000000000
     19842       170  CHL1      C22             9.1192607234      -35.7297903464       -6.4723793518  MEMB      170             0.0000000000
     19843       170  CHL1      H22A            8.5293293761      -34.8206590319       -6.2175991163  MEMB      170             0.0000000000
     19844       170  CHL1      H22B            8.3787560586      -36.5525607884       -6.5881479678  MEMB      170             0.0000000000
     19845       170  CHL1      C23            10.0306587691      -36.0615142095       -5.2820645496  MEMB      170             0.0000000000
     19846       170  CHL1      H23A           10.3384628381      -37.1312393786       -5.3394623392  MEMB      170             0.0000000000
     19847       170  CHL1      H23B           10.9341932841      -35.4173456685       -5.3142060451  MEMB      170             0.0000000000
     19848       170  CHL1      C24             9.3626888670      -35.7752710751       -3.9263291905  MEMB      170             0.0000000000
     19849       170  CHL1      H24A            8.9261803575      -34.7568628299       -3.9777331234  MEMB      170             0.0000000000
     19850       170  CHL1      H24B            8.5578466439      -36.5271096878       -3.7612716913  MEMB      170             0.0000000000
     19851       170  CHL1      C25            10.3306429406      -35.7455487520       -2.7259711531  MEMB      170             0.0000000000
     19852       170  CHL1      H25            11.2318611497      -35.1354883937       -2.9826689840  MEMB      170             0.0000000000
     19853       170  CHL1      C26             9.6653132481      -35.2433282860       -1.4510991874  MEMB      170             0.0000000000
     19854       170  CHL1      H26A            8.8497615830      -35.9467143305       -1.1894544125  MEMB      170             0.0000000000
     19855       170  CHL1      H26B           10.4215931508      -35.2177203049       -0.6328082443  MEMB      170             0.0000000000
     19856       170  CHL1      H26C            9.2025749207      -34.2470767926       -1.5736127941  MEMB      170             0.0000000000
     19857       170  CHL1      C27            10.8110487523      -37.1301617356       -2.4407929485  MEMB      170             0.0000000000
     19858       170  CHL1      H27A           11.1753735962      -37.4561230267       -3.4326314069  MEMB      170             0.0000000000
     19859       170  CHL1      H27B           11.6533737846      -37.1697511890       -1.7193388355  MEMB      170             0.0000000000
     19860       170  CHL1      H27C            9.9826001658      -37.7928534855       -2.0961861075  MEMB      170             0.0000000000
     19861       171  CHL1      C3            -15.4692890599       33.9958433768      -17.3142553876  MEMB      171             0.0000000000
     19862       171  CHL1      H3            -14.4643490698       33.9113894416      -16.8455576718  MEMB      171             0.0000000000
     19863       171  CHL1      O3            -15.3896488658       33.5360081689      -18.6450627531  MEMB      171             0.0000000000
     19864       171  CHL1      H3'           -15.3121558978       32.5868735800      -18.5809149895  MEMB      171             0.0000000000
     19865       171  CHL1      C4            -16.4505477164       33.1706246382      -16.4970167439  MEMB      171             0.0000000000
     19866       171  CHL1      H4A           -17.4511263594       33.1706491932      -16.9827360456  MEMB      171             0.0000000000
     19867       171  CHL1      H4B           -16.1262815265       32.1028962989      -16.4967633206  MEMB      171             0.0000000000
     19868       171  CHL1      C5            -16.5012407329       33.7373248947      -15.0832506257  MEMB      171             0.0000000000
     19869       171  CHL1      C6            -16.2203771470       32.9655249892      -14.0163770667  MEMB      171             0.0000000000
     19870       171  CHL1      H6            -16.0477475222       31.8856242652      -14.1845237833  MEMB      171             0.0000000000
     19871       171  CHL1      C7            -16.3911639229       33.3873804714      -12.5940649811  MEMB      171             0.0000000000
     19872       171  CHL1      H7A           -16.9602514836       32.6387006570      -12.0000918584  MEMB      171             0.0000000000
     19873       171  CHL1      H7B           -15.3742315109       33.4414244982      -12.1719050799  MEMB      171             0.0000000000
     19874       171  CHL1      C8            -17.0929581217       34.7600486403      -12.4464488606  MEMB      171             0.0000000000
     19875       171  CHL1      H8            -18.1912794159       34.5919413480      -12.5043577613  MEMB      171             0.0000000000
     19876       171  CHL1      C14           -16.7329837911       35.4013618619      -11.1217893780  MEMB      171             0.0000000000
     19877       171  CHL1      H14           -15.6553627673       35.7009501204      -11.1812809848  MEMB      171             0.0000000000
     19878       171  CHL1      C15           -16.8651056010       34.5269336515       -9.8602502186  MEMB      171             0.0000000000
     19879       171  CHL1      H15A          -17.8169250744       33.9569265127       -9.8907261726  MEMB      171             0.0000000000
     19880       171  CHL1      H15B          -16.0343240408       33.8108957284       -9.7075707459  MEMB      171             0.0000000000
     19881       171  CHL1      C16           -16.9043961347       35.5495818706       -8.7471076226  MEMB      171             0.0000000000
     19882       171  CHL1      H16A          -17.8232011075       35.3827649822       -8.1391397228  MEMB      171             0.0000000000
     19883       171  CHL1      H16B          -16.0140399172       35.5290707953       -8.0844573224  MEMB      171             0.0000000000
     19884       171  CHL1      C17           -16.9168906479       36.9412930442       -9.4247491104  MEMB      171             0.0000000000
     19885       171  CHL1      H17           -15.8559788442       37.2834473927       -9.5328908493  MEMB      171             0.0000000000
     19886       171  CHL1      C13           -17.4002260306       36.7383549024      -10.8444328659  MEMB      171             0.0000000000
     19887       171  CHL1      C18           -18.8951104436       36.6046205443      -10.8398732843  MEMB      171             0.0000000000
     19888       171  CHL1      H18A          -19.2551353801       35.9343933390      -10.0355082060  MEMB      171             0.0000000000
     19889       171  CHL1      H18B          -19.3898605013       37.5908885156      -10.7019871757  MEMB      171             0.0000000000
     19890       171  CHL1      H18C          -19.2612679507       36.1993011620      -11.8043441293  MEMB      171             0.0000000000
     19891       171  CHL1      C12           -16.9648015433       37.7377213701      -11.9189661599  MEMB      171             0.0000000000
     19892       171  CHL1      H12A          -17.5406321416       38.6829356700      -11.8694203182  MEMB      171             0.0000000000
     19893       171  CHL1      H12B          -15.8923181966       37.9696512469      -11.7734790080  MEMB      171             0.0000000000
     19894       171  CHL1      C11           -17.2302689244       37.1598804430      -13.3121635604  MEMB      171             0.0000000000
     19895       171  CHL1      H11A          -18.3320754911       37.1066928365      -13.4253576140  MEMB      171             0.0000000000
     19896       171  CHL1      H11B          -16.8503661720       37.8833836287      -14.0602857979  MEMB      171             0.0000000000
     19897       171  CHL1      C9            -16.6654107047       35.7329149678      -13.5433046634  MEMB      171             0.0000000000
     19898       171  CHL1      H9            -15.5550438046       35.8062792819      -13.4322095487  MEMB      171             0.0000000000
     19899       171  CHL1      C10           -16.8986374933       35.2093798898      -14.9756735777  MEMB      171             0.0000000000
     19900       171  CHL1      C19           -18.3717808424       35.4100020245      -15.3712508868  MEMB      171             0.0000000000
     19901       171  CHL1      H19A          -19.0441190917       34.8266149594      -14.7030545930  MEMB      171             0.0000000000
     19902       171  CHL1      H19B          -18.6789118997       36.4678886829      -15.3528724456  MEMB      171             0.0000000000
     19903       171  CHL1      H19C          -18.5659293997       35.1051073977      -16.4214108459  MEMB      171             0.0000000000
     19904       171  CHL1      C1            -16.0147971856       36.0264537567      -15.9395708198  MEMB      171             0.0000000000
     19905       171  CHL1      H1A           -16.4013287476       37.0656679345      -15.9958920967  MEMB      171             0.0000000000
     19906       171  CHL1      H1B           -14.9994003142       36.0498752677      -15.4937507415  MEMB      171             0.0000000000
     19907       171  CHL1      C2            -15.8856534908       35.4576909320      -17.3543373880  MEMB      171             0.0000000000
     19908       171  CHL1      H2A           -15.0926855337       36.0075484480      -17.9011822417  MEMB      171             0.0000000000
     19909       171  CHL1      H2B           -16.8432236391       35.5565465211      -17.9130585322  MEMB      171             0.0000000000
     19910       171  CHL1      C20           -17.5645013679       37.9288920918       -8.5389832093  MEMB      171             0.0000000000
     19911       171  CHL1      H20           -18.6686160292       37.7888649651       -8.3854439828  MEMB      171             0.0000000000
     19912       171  CHL1      C21           -17.3966543832       39.2479209758       -9.2543529114  MEMB      171             0.0000000000
     19913       171  CHL1      H21A          -16.4894974289       39.8660332887       -9.1157506772  MEMB      171             0.0000000000
     19914       171  CHL1      H21B          -18.1914969556       39.7062745526       -8.7763129736  MEMB      171             0.0000000000
     19915       171  CHL1      H21C          -17.9257415277       39.3913673893      -10.1975860125  MEMB      171             0.0000000000
     19916       171  CHL1      C22           -16.8830231997       37.7890068755       -7.1743728298  MEMB      171             0.0000000000
     19917       171  CHL1      H22A          -17.0366526119       36.7739542347       -6.7535438492  MEMB      171             0.0000000000
     19918       171  CHL1      H22B          -15.8185480674       38.1040712071       -7.1855407681  MEMB      171             0.0000000000
     19919       171  CHL1      C23           -17.4877572169       38.4828170203       -6.0509222495  MEMB      171             0.0000000000
     19920       171  CHL1      H23A          -17.2343983644       39.5403154875       -6.2721449424  MEMB      171             0.0000000000
     19921       171  CHL1      H23B          -18.5869488019       38.2855039069       -6.0452106312  MEMB      171             0.0000000000
     19922       171  CHL1      C24           -16.8331733003       38.0284752658       -4.7602843681  MEMB      171             0.0000000000
     19923       171  CHL1      H24A          -15.9201892226       38.5838749328       -4.4718940859  MEMB      171             0.0000000000
     19924       171  CHL1      H24B          -17.4068619805       38.3429059080       -3.9911204685  MEMB      171             0.0000000000
     19925       171  CHL1      C25           -17.3060965932       36.7116139648       -4.1069176607  MEMB      171             0.0000000000
     19926       171  CHL1      H25           -16.6539427148       36.0508317222       -4.6940172607  MEMB      171             0.0000000000
     19927       171  CHL1      C26           -17.0440063497       36.5980954115       -2.6003328159  MEMB      171             0.0000000000
     19928       171  CHL1      H26A          -17.6588106370       37.0178992165       -1.8074570512  MEMB      171             0.0000000000
     19929       171  CHL1      H26B          -16.7025040270       35.5825200246       -2.3682849487  MEMB      171             0.0000000000
     19930       171  CHL1      H26C          -16.3379505079       37.3478584250       -2.3356347621  MEMB      171             0.0000000000
     19931       171  CHL1      C27           -18.7788179576       36.3052903555       -4.1755654543  MEMB      171             0.0000000000
     19932       171  CHL1      H27A          -19.1651558846       36.1919132927       -5.1856004850  MEMB      171             0.0000000000
     19933       171  CHL1      H27B          -18.8480050842       35.3934216890       -3.5624825224  MEMB      171             0.0000000000
     19934       171  CHL1      H27C          -19.5262624354       36.9305081681       -3.6865636360  MEMB      171             0.0000000000
     19935       172  SLPC      N              37.2727980624        6.9337562458      -15.7401278332  MEMB      172             0.0000000000
     19936       172  SLPC      C13            37.4923717231        8.3534258907      -16.1225533175  MEMB      172             0.0000000000
     19937       172  SLPC      H13A           36.8251087931        8.6165998178      -16.9462256997  MEMB      172             0.0000000000
     19938       172  SLPC      H13B           37.3162744207        9.0357868264      -15.2977191254  MEMB      172             0.0000000000
     19939       172  SLPC      H13C           38.5116698257        8.4690301805      -16.4686425266  MEMB      172             0.0000000000
     19940       172  SLPC      C14            37.7772551561        6.7206368274      -14.3548239474  MEMB      172             0.0000000000
     19941       172  SLPC      H14A           38.8470821866        6.8669787665      -14.3134466665  MEMB      172             0.0000000000
     19942       172  SLPC      H14B           37.3219856045        7.4247613938      -13.6673652491  MEMB      172             0.0000000000
     19943       172  SLPC      H14C           37.5419510037        5.7182317799      -14.0175447744  MEMB      172             0.0000000000
     19944       172  SLPC      C15            38.0698261984        6.1487984384      -16.7342086701  MEMB      172             0.0000000000
     19945       172  SLPC      H15A           37.9463517533        5.0872047345      -16.5912437505  MEMB      172             0.0000000000
     19946       172  SLPC      H15B           37.7246895625        6.4177808540      -17.7345964459  MEMB      172             0.0000000000
     19947       172  SLPC      H15C           39.1298843689        6.3748499903      -16.6725550808  MEMB      172             0.0000000000
     19948       172  SLPC      C12            35.7880876968        6.6029658385      -15.7893894871  MEMB      172             0.0000000000
     19949       172  SLPC      H12A           35.2569365852        7.4454432869      -15.3522913406  MEMB      172             0.0000000000
     19950       172  SLPC      H12B           35.5980286245        5.7635820718      -15.1315749755  MEMB      172             0.0000000000
     19951       172  SLPC      C11            35.1217112472        6.3199072916      -17.1609585649  MEMB      172             0.0000000000
     19952       172  SLPC      H11A           34.0471228171        6.0739850043      -16.9790021604  MEMB      172             0.0000000000
     19953       172  SLPC      H11B           35.5361705518        5.4328257043      -17.6877192355  MEMB      172             0.0000000000
     19954       172  SLPC      P              34.1557060971        8.5210816786      -18.1726057789  MEMB      172             0.0000000000
     19955       172  SLPC      O13            34.5239098973        9.1814720885      -19.4257855157  MEMB      172             0.0000000000
     19956       172  SLPC      O14            32.8501583566        7.8718525364      -18.0272086362  MEMB      172             0.0000000000
     19957       172  SLPC      O12            35.2693683412        7.4321563117      -18.0189162085  MEMB      172             0.0000000000
     19958       172  SLPC      O11            34.4482278269        9.4660797199      -17.0578411202  MEMB      172             0.0000000000
     19959       172  SLPC      C1             35.1740409742       10.6578407973      -17.4587174343  MEMB      172             0.0000000000
     19960       172  SLPC      HA             36.2354902253       10.6421719283      -17.1268142234  MEMB      172             0.0000000000
     19961       172  SLPC      HB             34.8871098277       11.1729673975      -18.4122676852  MEMB      172             0.0000000000
     19962       172  SLPC      C2             34.6480343986       11.6982594520      -16.6838310418  MEMB      172             0.0000000000
     19963       172  SLPC      HS             34.9867599141       12.7458821604      -16.6860824261  MEMB      172             0.0000000000
     19964       172  SLPC      O21            34.7639040961       10.9384352158      -15.3327403481  MEMB      172             0.0000000000
     19965       172  SLPC      C21            35.7347063532       10.7923292667      -14.4682666268  MEMB      172             0.0000000000
     19966       172  SLPC      O22            36.8842472994       11.0954564744      -14.7368181990  MEMB      172             0.0000000000
     19967       172  SLPC      C22            35.2354563304       10.1752578438      -13.0100378040  MEMB      172             0.0000000000
     19968       172  SLPC      H2R            34.1431718977       10.0539007555      -12.8894845908  MEMB      172             0.0000000000
     19969       172  SLPC      H2S            35.7509523490        9.2361486885      -12.8751357812  MEMB      172             0.0000000000
     19970       172  SLPC      C3             33.0848876057       12.1329385155      -17.3796272170  MEMB      172             0.0000000000
     19971       172  SLPC      HX             32.9452872496       12.6955452247      -18.2778408174  MEMB      172             0.0000000000
     19972       172  SLPC      HY             33.1496691162       13.2222843374      -16.9234084290  MEMB      172             0.0000000000
     19973       172  SLPC      O31            31.8085613991       11.2161465914      -17.1870670149  MEMB      172             0.0000000000
     19974       172  SLPC      C31            31.0029384020       10.7063063983      -16.1766776069  MEMB      172             0.0000000000
     19975       172  SLPC      O32            30.6243889004       11.3666108626      -15.2087962356  MEMB      172             0.0000000000
     19976       172  SLPC      C32            30.6030862903        8.8653517500      -16.2041463853  MEMB      172             0.0000000000
     19977       172  SLPC      H2X            31.1446211584        8.6403122528      -16.9664456370  MEMB      172             0.0000000000
     19978       172  SLPC      H2Y            29.8383912466        9.4167399952      -16.3433870939  MEMB      172             0.0000000000
     19979       172  SLPC      C23            35.6240962255       10.8859455439      -11.6752656123  MEMB      172             0.0000000000
     19980       172  SLPC      H3R            34.9147509401       11.7409517907      -11.4394729793  MEMB      172             0.0000000000
     19981       172  SLPC      H3S            36.6833668004       11.1436338208      -11.8889309887  MEMB      172             0.0000000000
     19982       172  SLPC      C24            35.5940650426       10.4151292979      -10.2882317084  MEMB      172             0.0000000000
     19983       172  SLPC      H4R            35.6844361990       11.3106397284       -9.5965803551  MEMB      172             0.0000000000
     19984       172  SLPC      H4S            36.4710441651        9.7640624116      -10.2333127735  MEMB      172             0.0000000000
     19985       172  SLPC      C25            34.2564977527        9.8340900795      -10.0961152967  MEMB      172             0.0000000000
     19986       172  SLPC      H5R            34.2762331510        9.3735917999       -9.1024129118  MEMB      172             0.0000000000
     19987       172  SLPC      H5S            34.0550584559        9.0554782956      -10.8800119962  MEMB      172             0.0000000000
     19988       172  SLPC      C26            33.1942122943       10.9047083437      -10.2162869765  MEMB      172             0.0000000000
     19989       172  SLPC      H6R            33.0712701298       11.1282633752      -11.3061005514  MEMB      172             0.0000000000
     19990       172  SLPC      H6S            33.3040514493       11.7701852228       -9.5419118525  MEMB      172             0.0000000000
     19991       172  SLPC      C27            31.9258393715       10.3439847749       -9.9146241274  MEMB      172             0.0000000000
     19992       172  SLPC      H7R            32.1815871856        9.3408944874      -10.2956134918  MEMB      172             0.0000000000
     19993       172  SLPC      H7S            31.1466404547       10.5860003279      -10.6350088623  MEMB      172             0.0000000000
     19994       172  SLPC      C28            31.5633892288       10.3760570695       -8.4296478197  MEMB      172             0.0000000000
     19995       172  SLPC      H8R            32.1223228764        9.5896442576       -7.8794200287  MEMB      172             0.0000000000
     19996       172  SLPC      H8S            30.6526673908        9.8683873824       -8.2276357844  MEMB      172             0.0000000000
     19997       172  SLPC      C29            31.1922115556       11.6975687910       -7.8554585784  MEMB      172             0.0000000000
     19998       172  SLPC      H9R            30.2265469420       12.1483199702       -8.0950752057  MEMB      172             0.0000000000
     19999       172  SLPC      C210           31.7467209853       12.2319042067       -6.8451593797  MEMB      172             0.0000000000
     20000       172  SLPC      H10R           31.3093520719       13.1625772286       -6.4722324755  MEMB      172             0.0000000000
     20001       172  SLPC      C211           32.8456414111       11.5172109859       -6.1849757692  MEMB      172             0.0000000000
     20002       172  SLPC      H11R           33.1941191107       10.5825029168       -6.6622894171  MEMB      172             0.0000000000
     20003       172  SLPC      H11S           32.4957477245       11.2710448475       -5.1746443684  MEMB      172             0.0000000000
     20004       172  SLPC      C212           33.9603269744       12.4614858251       -6.2317758780  MEMB      172             0.0000000000
     20005       172  SLPC      H12R           34.3459845093       12.7828735729       -7.2101968404  MEMB      172             0.0000000000
     20006       172  SLPC      C213           34.4541539030       12.9673695089       -5.1374616171  MEMB      172             0.0000000000
     20007       172  SLPC      H13R           35.1922955361       13.6549763931       -5.2509487441  MEMB      172             0.0000000000
     20008       172  SLPC      C214           34.1158483584       12.8003355005       -3.7231925641  MEMB      172             0.0000000000
     20009       172  SLPC      H14R           34.9453716214       13.0872645282       -3.0163044725  MEMB      172             0.0000000000
     20010       172  SLPC      H14S           33.6594635151       11.8505653703       -3.4944462119  MEMB      172             0.0000000000
     20011       172  SLPC      C215           32.8580232056       13.5594635034       -3.6417837025  MEMB      172             0.0000000000
     20012       172  SLPC      H15R           32.0717213402       13.7135945982       -4.3524946119  MEMB      172             0.0000000000
     20013       172  SLPC      H15S           33.1153987482       14.5079806946       -3.7734080511  MEMB      172             0.0000000000
     20014       172  SLPC      C216           32.3678738370       13.7820834858       -2.3631545198  MEMB      172             0.0000000000
     20015       172  SLPC      H16R           31.6608723843       14.5763342690       -2.4355095714  MEMB      172             0.0000000000
     20016       172  SLPC      H16S           33.0253570750       14.3517997373       -1.9013104834  MEMB      172             0.0000000000
     20017       172  SLPC      C217           32.5028208932       12.7627199177       -1.4310911604  MEMB      172             0.0000000000
     20018       172  SLPC      H17R           32.3426200810       13.0643604602       -0.4615526952  MEMB      172             0.0000000000
     20019       172  SLPC      H17S           33.5542852221       12.5681704577       -1.1847379831  MEMB      172             0.0000000000
     20020       172  SLPC      C218           31.4881687201       11.8377737277       -1.9516311756  MEMB      172             0.0000000000
     20021       172  SLPC      H18R           30.7102256009       12.4092968401       -2.4432900657  MEMB      172             0.0000000000
     20022       172  SLPC      H18S           30.9745499511       11.2224272523       -1.2196463598  MEMB      172             0.0000000000
     20023       172  SLPC      H18T           31.9941497518       11.2526202690       -2.6916172902  MEMB      172             0.0000000000
     20024       172  SLPC      C33            30.6275781354        7.4282630741      -14.6127724868  MEMB      172             0.0000000000
     20025       172  SLPC      H3X            29.7440518520        6.8407065590      -14.3879809053  MEMB      172             0.0000000000
     20026       172  SLPC      H3Y            30.3558949204        7.9673452782      -13.5653456166  MEMB      172             0.0000000000
     20027       172  SLPC      C34            32.2718843994        7.1718889327      -13.8372494378  MEMB      172             0.0000000000
     20028       172  SLPC      H4X            33.0765962726        8.0785252572      -13.4561907156  MEMB      172             0.0000000000
     20029       172  SLPC      H4Y            33.0939695818        7.0939555640      -14.5753889424  MEMB      172             0.0000000000
     20030       172  SLPC      C35            31.9175942336        6.7830162074      -12.6396371541  MEMB      172             0.0000000000
     20031       172  SLPC      H5X            31.1028522013        6.0806360434      -12.9202351408  MEMB      172             0.0000000000
     20032       172  SLPC      H5Y            31.6491217169        7.6814785983      -12.0680984748  MEMB      172             0.0000000000
     20033       172  SLPC      C36            33.1675223767        6.3300012634      -12.3247845278  MEMB      172             0.0000000000
     20034       172  SLPC      H6X            33.9886804974        7.0727799914      -12.2671539217  MEMB      172             0.0000000000
     20035       172  SLPC      H6Y            33.4013733004        5.5161709453      -13.0698115515  MEMB      172             0.0000000000
     20036       172  SLPC      C37            32.9936273182        6.1610938816      -10.9524438728  MEMB      172             0.0000000000
     20037       172  SLPC      H7X            32.2996899618        5.2224234722      -11.2539939923  MEMB      172             0.0000000000
     20038       172  SLPC      H7Y            32.1327390830        6.3544371073      -10.2788258516  MEMB      172             0.0000000000
     20039       172  SLPC      C38            34.6646355447        6.2673866191      -10.4890305289  MEMB      172             0.0000000000
     20040       172  SLPC      H8X            35.4128693683        5.9997815647      -11.2448990057  MEMB      172             0.0000000000
     20041       172  SLPC      H8Y            35.1495901804        5.5394781063       -9.7426108357  MEMB      172             0.0000000000
     20042       172  SLPC      C39            35.1378153472        7.1737876652       -9.5298425029  MEMB      172             0.0000000000
     20043       172  SLPC      H9X            34.0759330114        7.3958742849       -9.2522198643  MEMB      172             0.0000000000
     20044       172  SLPC      H9Y            35.4352813014        7.6976003987      -10.4516128039  MEMB      172             0.0000000000
     20045       172  SLPC      C310           36.1410547468        6.4534506059       -8.4886749548  MEMB      172             0.0000000000
     20046       172  SLPC      H10X           36.9494818585        5.9223180110       -9.0649781351  MEMB      172             0.0000000000
     20047       172  SLPC      H10Y           35.7675643901        5.5736613357       -7.8575916350  MEMB      172             0.0000000000
     20048       172  SLPC      C311           36.4165238687        7.4564567793       -7.5409583508  MEMB      172             0.0000000000
     20049       172  SLPC      H11X           36.8214787261        8.2174155669       -8.2412851812  MEMB      172             0.0000000000
     20050       172  SLPC      H11Y           37.1457118709        6.9467988968       -6.8957787718  MEMB      172             0.0000000000
     20051       172  SLPC      C312           35.1762119631        7.9529716268       -6.7954401389  MEMB      172             0.0000000000
     20052       172  SLPC      H12X           34.6546510349        7.1535152960       -6.2262563955  MEMB      172             0.0000000000
     20053       172  SLPC      H12Y           34.4046693840        8.3319468788       -7.4932071122  MEMB      172             0.0000000000
     20054       172  SLPC      C313           35.6113645597        9.1643209018       -5.9709739304  MEMB      172             0.0000000000
     20055       172  SLPC      H13X           34.7362167433        9.7086312814       -5.5754873843  MEMB      172             0.0000000000
     20056       172  SLPC      H13Y           36.1256172716        9.8488869694       -6.6903766048  MEMB      172             0.0000000000
     20057       172  SLPC      C314           36.4193800904        8.8251806012       -4.7104561963  MEMB      172             0.0000000000
     20058       172  SLPC      H14X           37.2965813190        8.1812905779       -4.9275816692  MEMB      172             0.0000000000
     20059       172  SLPC      H14Y           35.7563891908        8.2457020584       -4.0380427606  MEMB      172             0.0000000000
     20060       172  SLPC      C315           36.9404055247       10.0549501147       -3.9558444221  MEMB      172             0.0000000000
     20061       172  SLPC      H15X           36.1415855441       10.7342270272       -3.6038294941  MEMB      172             0.0000000000
     20062       172  SLPC      H15Y           37.5201076222       10.6068317468       -4.7223695449  MEMB      172             0.0000000000
     20063       172  SLPC      C316           37.7788441051        9.6675310842       -2.7278206931  MEMB      172             0.0000000000
     20064       172  SLPC      H16X           37.2249883088        9.0069172946       -2.0264997959  MEMB      172             0.0000000000
     20065       172  SLPC      H16Y           38.0043370596       10.5538469960       -2.1220423816  MEMB      172             0.0000000000
     20066       172  SLPC      C317           39.1241498262        9.1100911960       -3.1601854466  MEMB      172             0.0000000000
     20067       172  SLPC      H17X           39.9352545551        9.7750161053       -2.7838912380  MEMB      172             0.0000000000
     20068       172  SLPC      H17Y           39.1561588834        9.1834248035       -4.2721557282  MEMB      172             0.0000000000
     20069       172  SLPC      C318           39.4067726612        7.6806558718       -2.7272316982  MEMB      172             0.0000000000
     20070       172  SLPC      H18X           38.9363496200        6.8993388565       -3.3557712450  MEMB      172             0.0000000000
     20071       172  SLPC      H18Y           39.2998496824        7.4990749933       -1.6406713613  MEMB      172             0.0000000000
     20072       172  SLPC      H18Z           40.4532411466        7.5374857091       -2.8926550916  MEMB      172             0.0000000000
     20073       173  CHL1      C3             13.7916737523       34.0368301596      -17.4068397262  MEMB      173             0.0000000000
     20074       173  CHL1      H3             12.9131690667       33.3672913829      -17.5788224593  MEMB      173             0.0000000000
     20075       173  CHL1      O3             14.1867267102       34.6448784876      -18.6244877686  MEMB      173             0.0000000000
     20076       173  CHL1      H3'            14.6015938537       33.9544462835      -19.1490127895  MEMB      173             0.0000000000
     20077       173  CHL1      C4             13.3947174941       35.1583178554      -16.4297333169  MEMB      173             0.0000000000
     20078       173  CHL1      H4A            14.1768766600       35.9448779804      -16.4992573950  MEMB      173             0.0000000000
     20079       173  CHL1      H4B            12.4673201587       35.6519065869      -16.8009760508  MEMB      173             0.0000000000
     20080       173  CHL1      C5             13.2097312590       34.6560433845      -15.0128997099  MEMB      173             0.0000000000
     20081       173  CHL1      C6             12.1012306776       34.9275019571      -14.3239701200  MEMB      173             0.0000000000
     20082       173  CHL1      H6             11.3577617954       35.5853052268      -14.7992018613  MEMB      173             0.0000000000
     20083       173  CHL1      C7             11.8718074298       34.4806222094      -12.9038184851  MEMB      173             0.0000000000
     20084       173  CHL1      H7A            11.5154534693       35.3276208450      -12.3095346796  MEMB      173             0.0000000000
     20085       173  CHL1      H7B            11.0890286733       33.6896706341      -12.8399449182  MEMB      173             0.0000000000
     20086       173  CHL1      C8             13.1432634427       33.9899378810      -12.1735188817  MEMB      173             0.0000000000
     20087       173  CHL1      H8             13.7471113999       34.8813135205      -11.8959252396  MEMB      173             0.0000000000
     20088       173  CHL1      C14            12.7337866407       33.2244388313      -10.9163895438  MEMB      173             0.0000000000
     20089       173  CHL1      H14            12.1287679915       32.3522392441      -11.2783006632  MEMB      173             0.0000000000
     20090       173  CHL1      C15            11.8361274820       33.9280065213       -9.8708763062  MEMB      173             0.0000000000
     20091       173  CHL1      H15A           12.1549026478       34.9811080563       -9.7400776371  MEMB      173             0.0000000000
     20092       173  CHL1      H15B           10.7696324592       33.9106555600      -10.1680992989  MEMB      173             0.0000000000
     20093       173  CHL1      C16            12.0958401301       33.1641323933       -8.5689382850  MEMB      173             0.0000000000
     20094       173  CHL1      H16A           12.5883627970       33.8600747635       -7.8474612978  MEMB      173             0.0000000000
     20095       173  CHL1      H16B           11.1906599779       32.7640774835       -8.0668329567  MEMB      173             0.0000000000
     20096       173  CHL1      C17            13.1618906302       32.0802247853       -8.9108391723  MEMB      173             0.0000000000
     20097       173  CHL1      H17            12.6451231872       31.1385160307       -9.2104077794  MEMB      173             0.0000000000
     20098       173  CHL1      C13            13.8905565368       32.6086047449      -10.1471118724  MEMB      173             0.0000000000
     20099       173  CHL1      C18            14.9197412172       33.6776842582       -9.7106549725  MEMB      173             0.0000000000
     20100       173  CHL1      H18A           14.5171928300       34.3942239811       -8.9692016419  MEMB      173             0.0000000000
     20101       173  CHL1      H18B           15.7858097523       33.1495717495       -9.2652027661  MEMB      173             0.0000000000
     20102       173  CHL1      H18C           15.3058677540       34.2391784620      -10.5831627993  MEMB      173             0.0000000000
     20103       173  CHL1      C12            14.5762055869       31.5717712937      -11.0493341132  MEMB      173             0.0000000000
     20104       173  CHL1      H12A           15.4187698173       31.1054642393      -10.5048141330  MEMB      173             0.0000000000
     20105       173  CHL1      H12B           13.8852735052       30.7399300269      -11.2848150617  MEMB      173             0.0000000000
     20106       173  CHL1      C11            15.0750137464       32.2512184460      -12.3514280593  MEMB      173             0.0000000000
     20107       173  CHL1      H11A           15.9345323909       32.8886946902      -12.0681306167  MEMB      173             0.0000000000
     20108       173  CHL1      H11B           15.4773802928       31.4550763604      -13.0063525377  MEMB      173             0.0000000000
     20109       173  CHL1      C9             13.9711986280       33.0916413710      -13.1002198452  MEMB      173             0.0000000000
     20110       173  CHL1      H9             13.2340875585       32.3172389880      -13.4190631634  MEMB      173             0.0000000000
     20111       173  CHL1      C10            14.3322446890       33.7618979278      -14.4704999060  MEMB      173             0.0000000000
     20112       173  CHL1      C19            15.5439744458       34.7275954277      -14.3716781737  MEMB      173             0.0000000000
     20113       173  CHL1      H19A           15.3166797218       35.5683640627      -13.6859576881  MEMB      173             0.0000000000
     20114       173  CHL1      H19B           16.4206194218       34.1732663774      -14.0003043850  MEMB      173             0.0000000000
     20115       173  CHL1      H19C           15.8296600205       35.1822310314      -15.3503807428  MEMB      173             0.0000000000
     20116       173  CHL1      C1             14.5731514027       32.6192485853      -15.4960219897  MEMB      173             0.0000000000
     20117       173  CHL1      H1A            15.3808631306       31.9532558750      -15.1332485805  MEMB      173             0.0000000000
     20118       173  CHL1      H1B            13.6505687366       32.0008823059      -15.5892078627  MEMB      173             0.0000000000
     20119       173  CHL1      C2             14.9312050995       33.1432422243      -16.8846316537  MEMB      173             0.0000000000
     20120       173  CHL1      H2A            15.0820258106       32.3006461642      -17.5887092574  MEMB      173             0.0000000000
     20121       173  CHL1      H2B            15.9022692161       33.6659495812      -16.7802298713  MEMB      173             0.0000000000
     20122       173  CHL1      C20            13.9773632579       31.7878544611       -7.6821982666  MEMB      173             0.0000000000
     20123       173  CHL1      H20            14.4791202430       32.7159750935       -7.3192102119  MEMB      173             0.0000000000
     20124       173  CHL1      C21            15.1183139634       30.7713693245       -7.9436919450  MEMB      173             0.0000000000
     20125       173  CHL1      H21A           15.6258887740       30.4023003163       -7.0360802225  MEMB      173             0.0000000000
     20126       173  CHL1      H21B           15.9878130847       31.1912341511       -8.4594327992  MEMB      173             0.0000000000
     20127       173  CHL1      H21C           14.6912034818       29.8776808960       -8.4415614503  MEMB      173             0.0000000000
     20128       173  CHL1      C22            13.0072022265       31.4139995260       -6.5611207478  MEMB      173             0.0000000000
     20129       173  CHL1      H22A           12.1887587170       32.1202710281       -6.3245159085  MEMB      173             0.0000000000
     20130       173  CHL1      H22B           12.5782013226       30.3850356814       -6.6211461856  MEMB      173             0.0000000000
     20131       173  CHL1      C23            13.7577955619       31.6667007626       -5.3291781468  MEMB      173             0.0000000000
     20132       173  CHL1      H23A           14.7152002985       31.1052335573       -5.4939570455  MEMB      173             0.0000000000
     20133       173  CHL1      H23B           14.2099464593       32.6092257144       -5.1274018777  MEMB      173             0.0000000000
     20134       173  CHL1      C24            12.8669324482       31.4095963471       -4.1104271754  MEMB      173             0.0000000000
     20135       173  CHL1      H24A           12.2071072249       30.5395530823       -4.3929389488  MEMB      173             0.0000000000
     20136       173  CHL1      H24B           13.5858787036       31.3634313517       -3.2359719146  MEMB      173             0.0000000000
     20137       173  CHL1      C25            11.7073360259       32.0832502060       -3.5829346312  MEMB      173             0.0000000000
     20138       173  CHL1      H25            10.8535160650       31.8859243022       -4.2661193368  MEMB      173             0.0000000000
     20139       173  CHL1      C26            11.3191160635       31.7562115717       -2.1371190018  MEMB      173             0.0000000000
     20140       173  CHL1      H26A           10.9131262630       32.6829748807       -1.6863182829  MEMB      173             0.0000000000
     20141       173  CHL1      H26B           10.5483323821       30.9732657528       -1.9937454669  MEMB      173             0.0000000000
     20142       173  CHL1      H26C           12.2254732353       31.4938626338       -1.5556492429  MEMB      173             0.0000000000
     20143       173  CHL1      C27            12.3352384606       33.3889871686       -3.6315460527  MEMB      173             0.0000000000
     20144       173  CHL1      H27A           12.5313056520       33.6192101560       -4.6981974595  MEMB      173             0.0000000000
     20145       173  CHL1      H27B           11.4982501337       33.8794214941       -3.2167233445  MEMB      173             0.0000000000
     20146       173  CHL1      H27C           13.2348957574       33.4803394166       -2.9748568446  MEMB      173             0.0000000000
     20147       174  SAPE      N              33.6940480868       17.5575352716      -22.4536561794  MEMB      174             0.0000000000
     20148       174  SAPE      HN1            34.7090645745       17.7510296101      -22.5890637645  MEMB      174             0.0000000000
     20149       174  SAPE      HN2            33.5719574311       16.5211640002      -22.4022776835  MEMB      174             0.0000000000
     20150       174  SAPE      HN3            33.1068042383       17.9293593682      -23.2306221616  MEMB      174             0.0000000000
     20151       174  SAPE      C12            33.3326440300       17.9598169325      -21.0538318472  MEMB      174             0.0000000000
     20152       174  SAPE      H12A           32.2751572354       17.6614920508      -20.8951015802  MEMB      174             0.0000000000
     20153       174  SAPE      H12B           33.4501555003       19.0537176292      -20.9191222699  MEMB      174             0.0000000000
     20154       174  SAPE      C11            34.2348006601       17.1919988642      -20.0819076980  MEMB      174             0.0000000000
     20155       174  SAPE      H11A           33.8778239373       17.4045144210      -19.0437244134  MEMB      174             0.0000000000
     20156       174  SAPE      H11B           35.2775650376       17.5714237011      -20.1786899260  MEMB      174             0.0000000000
     20157       174  SAPE      P              34.4211648195       14.6776546848      -19.2803872109  MEMB      174             0.0000000000
     20158       174  SAPE      O13            34.2577073202       13.3727404498      -19.9432789140  MEMB      174             0.0000000000
     20159       174  SAPE      O14            35.6581896307       14.9584360105      -18.5198371606  MEMB      174             0.0000000000
     20160       174  SAPE      O12            34.2038669614       15.7996806134      -20.3964985814  MEMB      174             0.0000000000
     20161       174  SAPE      O11            33.1310942352       14.9789412275      -18.4037492103  MEMB      174             0.0000000000
     20162       174  SAPE      C1             31.8556135880       15.1422356997      -19.0565322441  MEMB      174             0.0000000000
     20163       174  SAPE      HA             31.8886854296       16.0493577939      -19.6932565492  MEMB      174             0.0000000000
     20164       174  SAPE      HB             31.5626251896       14.2989276076      -19.7222062615  MEMB      174             0.0000000000
     20165       174  SAPE      C2             30.6848526852       15.4224438176      -18.0723432355  MEMB      174             0.0000000000
     20166       174  SAPE      HS             29.9443105825       15.9145939352      -18.7119310598  MEMB      174             0.0000000000
     20167       174  SAPE      O21            31.2062535446       16.2078437649      -16.9971934880  MEMB      174             0.0000000000
     20168       174  SAPE      C21            30.3707917349       16.8630251894      -16.2442478555  MEMB      174             0.0000000000
     20169       174  SAPE      O22            29.1993662249       17.0831907541      -16.4138304541  MEMB      174             0.0000000000
     20170       174  SAPE      C22            31.0962945663       17.3479241383      -15.0005101068  MEMB      174             0.0000000000
     20171       174  SAPE      H2R            30.9551062190       16.5106747370      -14.2951589219  MEMB      174             0.0000000000
     20172       174  SAPE      H2S            32.1753794354       17.3959252439      -15.1775239991  MEMB      174             0.0000000000
     20173       174  SAPE      C3             29.9700469186       14.1792834197      -17.5077446855  MEMB      174             0.0000000000
     20174       174  SAPE      HX             29.5726404578       13.6824740404      -18.4551792418  MEMB      174             0.0000000000
     20175       174  SAPE      HY             29.0773736065       14.3369036796      -16.8753628057  MEMB      174             0.0000000000
     20176       174  SAPE      O31            30.8940667618       13.3464668648      -16.7847612114  MEMB      174             0.0000000000
     20177       174  SAPE      C31            31.5187836797       13.5018442993      -15.4919037455  MEMB      174             0.0000000000
     20178       174  SAPE      O32            31.1366578655       14.3464952830      -14.7473143236  MEMB      174             0.0000000000
     20179       174  SAPE      C32            32.6965987030       12.3752979891      -14.9337893200  MEMB      174             0.0000000000
     20180       174  SAPE      H2X            32.8681920787       11.3754057638      -15.4358352484  MEMB      174             0.0000000000
     20181       174  SAPE      H2Y            32.7264992153       11.2624647746      -14.8155603537  MEMB      174             0.0000000000
     20182       174  SAPE      C23            30.5472954129       18.7370819366      -14.4869719879  MEMB      174             0.0000000000
     20183       174  SAPE      H3R            29.8287435460       19.1562956819      -15.2359049642  MEMB      174             0.0000000000
     20184       174  SAPE      H3S            31.4041623062       19.4167078176      -14.4201943962  MEMB      174             0.0000000000
     20185       174  SAPE      C24            29.9062171612       18.8651292560      -13.1066862585  MEMB      174             0.0000000000
     20186       174  SAPE      H4R            29.2221204272       19.6986316549      -12.9581078243  MEMB      174             0.0000000000
     20187       174  SAPE      H4S            30.5112379232       18.6093529297      -12.2173330872  MEMB      174             0.0000000000
     20188       174  SAPE      C25            29.1043221751       17.7747631760      -13.3696646285  MEMB      174             0.0000000000
     20189       174  SAPE      H5R            28.0992857777       17.9791659740      -13.8240865057  MEMB      174             0.0000000000
     20190       174  SAPE      C26            29.1306171908       16.8150881715      -12.5478055651  MEMB      174             0.0000000000
     20191       174  SAPE      H6R            28.4229996492       16.3670109866      -12.9883799567  MEMB      174             0.0000000000
     20192       174  SAPE      C27            29.6324855104       16.2208739719      -11.2921748631  MEMB      174             0.0000000000
     20193       174  SAPE      H7R            29.1090149563       15.3824619623      -10.8112444881  MEMB      174             0.0000000000
     20194       174  SAPE      H7S            29.5058997976       16.9953675376      -10.5245461877  MEMB      174             0.0000000000
     20195       174  SAPE      C28            30.8889612438       15.6421654220      -11.6271398509  MEMB      174             0.0000000000
     20196       174  SAPE      H8R            30.9502356185       15.2095597299      -12.6301530629  MEMB      174             0.0000000000
     20197       174  SAPE      C29            31.8809543506       15.6934403861      -10.7879004733  MEMB      174             0.0000000000
     20198       174  SAPE      H9R            32.8264885972       15.4350637311      -11.2438439916  MEMB      174             0.0000000000
     20199       174  SAPE      C210           31.8220877136       16.3441044014       -9.4261967536  MEMB      174             0.0000000000
     20200       174  SAPE      H10R           32.6665144172       15.9493877016       -8.8382484803  MEMB      174             0.0000000000
     20201       174  SAPE      H10S           30.9133201765       16.0506153083       -8.8364319836  MEMB      174             0.0000000000
     20202       174  SAPE      C211           32.0006362343       17.8346545872       -9.6216314923  MEMB      174             0.0000000000
     20203       174  SAPE      H11R           32.4103573514       18.1387874711      -10.5867875436  MEMB      174             0.0000000000
     20204       174  SAPE      C212           31.5709030579       18.8374081597       -8.8745105413  MEMB      174             0.0000000000
     20205       174  SAPE      H12R           31.7110355419       19.8783161107       -9.1995767768  MEMB      174             0.0000000000
     20206       174  SAPE      C213           30.7908537844       18.7248042280       -7.6515088501  MEMB      174             0.0000000000
     20207       174  SAPE      H13R           30.0732923113       17.8656451434       -7.7128932681  MEMB      174             0.0000000000
     20208       174  SAPE      H13S           30.2385422170       19.6844575435       -7.8226207765  MEMB      174             0.0000000000
     20209       174  SAPE      C214           31.3252369207       18.7483160659       -6.2641620897  MEMB      174             0.0000000000
     20210       174  SAPE      H14R           31.6899569510       19.7421224273       -5.9560264173  MEMB      174             0.0000000000
     20211       174  SAPE      C215           31.2593774673       17.7708426057       -5.3460844156  MEMB      174             0.0000000000
     20212       174  SAPE      H15R           31.7748931900       18.0470428442       -4.4395825886  MEMB      174             0.0000000000
     20213       174  SAPE      C216           30.6639856669       16.3610796788       -5.3709809389  MEMB      174             0.0000000000
     20214       174  SAPE      H16R           31.4017110559       15.6140972859       -4.9984862046  MEMB      174             0.0000000000
     20215       174  SAPE      H16S           30.4172966902       16.0173179877       -6.3956531985  MEMB      174             0.0000000000
     20216       174  SAPE      C217           29.3875376366       16.2332207019       -4.5004993422  MEMB      174             0.0000000000
     20217       174  SAPE      H17R           28.5978246864       16.9027113309       -4.8717517396  MEMB      174             0.0000000000
     20218       174  SAPE      H17S           29.6061372853       16.6229322978       -3.5027688325  MEMB      174             0.0000000000
     20219       174  SAPE      C218           28.7074054144       14.8472791925       -4.4412602195  MEMB      174             0.0000000000
     20220       174  SAPE      H18R           28.6614286400       14.3793963231       -5.4463207012  MEMB      174             0.0000000000
     20221       174  SAPE      H18S           27.6864300403       14.9508489495       -4.0217919023  MEMB      174             0.0000000000
     20222       174  SAPE      C219           29.3385368579       13.8711953689       -3.4970272171  MEMB      174             0.0000000000
     20223       174  SAPE      H19R           30.3703375482       14.1622833835       -3.5344201647  MEMB      174             0.0000000000
     20224       174  SAPE      H19S           29.3394106019       12.8273675597       -3.8619205526  MEMB      174             0.0000000000
     20225       174  SAPE      C220           28.7916109274       13.8691920841       -2.0764326812  MEMB      174             0.0000000000
     20226       174  SAPE      H20R           29.3649489956       13.2342696481       -1.3705243757  MEMB      174             0.0000000000
     20227       174  SAPE      H20S           27.7833328505       13.4964571363       -2.0074607093  MEMB      174             0.0000000000
     20228       174  SAPE      H20T           28.8902437628       14.8761282726       -1.6528386496  MEMB      174             0.0000000000
     20229       174  SAPE      C33            33.4740908233       12.7749476954      -13.9605122204  MEMB      174             0.0000000000
     20230       174  SAPE      H3X            33.7399164480       11.8212379094      -13.4844298478  MEMB      174             0.0000000000
     20231       174  SAPE      H3Y            32.6775934129       13.0728870555      -13.3015460633  MEMB      174             0.0000000000
     20232       174  SAPE      C34            34.5220133512       13.7199182010      -14.5721122723  MEMB      174             0.0000000000
     20233       174  SAPE      H4X            34.0449101087       14.4268992466      -15.2704105415  MEMB      174             0.0000000000
     20234       174  SAPE      H4Y            35.4592981918       13.3815782450      -15.0898014074  MEMB      174             0.0000000000
     20235       174  SAPE      C35            35.2243552814       14.3495848028      -13.4585775835  MEMB      174             0.0000000000
     20236       174  SAPE      H5X            34.4097110208       14.5924071802      -12.7475686240  MEMB      174             0.0000000000
     20237       174  SAPE      H5Y            35.9241697029       15.0997009017      -13.8250822145  MEMB      174             0.0000000000
     20238       174  SAPE      C36            36.0407797359       13.3249419411      -12.8277678376  MEMB      174             0.0000000000
     20239       174  SAPE      H6X            36.7730170817       12.7084497881      -13.3592593934  MEMB      174             0.0000000000
     20240       174  SAPE      H6Y            35.2923566408       12.6535266404      -12.8548810349  MEMB      174             0.0000000000
     20241       174  SAPE      C37            36.4418247705       13.4418982152      -11.3857793824  MEMB      174             0.0000000000
     20242       174  SAPE      H7X            37.1894954003       13.7825942377      -11.8835606091  MEMB      174             0.0000000000
     20243       174  SAPE      H7Y            37.0686755922       12.6713451060      -10.9424274975  MEMB      174             0.0000000000
     20244       174  SAPE      C38            35.8853342574       14.3617158853      -10.3819874768  MEMB      174             0.0000000000
     20245       174  SAPE      H8X            35.0648940056       13.6932937057      -10.1144525878  MEMB      174             0.0000000000
     20246       174  SAPE      H8Y            35.7502476082       15.3645971429      -10.8603550994  MEMB      174             0.0000000000
     20247       174  SAPE      C39            36.7440462591       14.3896134147       -9.1403512183  MEMB      174             0.0000000000
     20248       174  SAPE      H9X            37.1599676822       15.4243101842       -9.1229058192  MEMB      174             0.0000000000
     20249       174  SAPE      H9Y            37.4711747809       13.5359438190       -9.1425525927  MEMB      174             0.0000000000
     20250       174  SAPE      C310           36.2604637209       14.6623663371       -7.8325840300  MEMB      174             0.0000000000
     20251       174  SAPE      H10X           36.2384528788       13.5934850448       -7.5194858884  MEMB      174             0.0000000000
     20252       174  SAPE      H10Y           35.3246875998       15.1732436148       -8.1494520187  MEMB      174             0.0000000000
     20253       174  SAPE      C311           37.1626287617       15.6606227681       -7.0555477386  MEMB      174             0.0000000000
     20254       174  SAPE      H11X           37.3620909489       16.6298005351       -7.5360188285  MEMB      174             0.0000000000
     20255       174  SAPE      H11Y           38.1941947837       15.4280149825       -6.9507391326  MEMB      174             0.0000000000
     20256       174  SAPE      C312           36.4967148130       15.8141184488       -5.7577944439  MEMB      174             0.0000000000
     20257       174  SAPE      H12X           37.0252120035       15.9905688581       -4.8301653383  MEMB      174             0.0000000000
     20258       174  SAPE      H12Y           36.3087374271       14.7846245687       -5.5933400799  MEMB      174             0.0000000000
     20259       174  SAPE      C313           35.3649156817       16.7779821126       -5.9636683085  MEMB      174             0.0000000000
     20260       174  SAPE      H13X           34.5671491141       16.2670520421       -6.5612649763  MEMB      174             0.0000000000
     20261       174  SAPE      H13Y           35.7847545388       17.6333147348       -6.5124232859  MEMB      174             0.0000000000
     20262       174  SAPE      C314           34.8409467515       17.2659713253       -4.6573381952  MEMB      174             0.0000000000
     20263       174  SAPE      H14X           33.9505590318       17.9282523880       -4.7501893493  MEMB      174             0.0000000000
     20264       174  SAPE      H14Y           35.5223986907       17.6569751512       -3.9152464773  MEMB      174             0.0000000000
     20265       174  SAPE      C315           34.5829446537       16.0496404908       -3.9092601275  MEMB      174             0.0000000000
     20266       174  SAPE      H15X           35.3341121959       15.3511220346       -3.5219364965  MEMB      174             0.0000000000
     20267       174  SAPE      H15Y           33.9475690346       15.6290865318       -4.7386594435  MEMB      174             0.0000000000
     20268       174  SAPE      C316           33.9487687694       16.3401085163       -2.6227300179  MEMB      174             0.0000000000
     20269       174  SAPE      H16X           32.8886399499       16.0758324742       -2.9035964112  MEMB      174             0.0000000000
     20270       174  SAPE      H16Y           33.9779041461       17.4342779253       -2.6789210486  MEMB      174             0.0000000000
     20271       174  SAPE      C317           34.5441387922       15.7513155746       -1.2424336450  MEMB      174             0.0000000000
     20272       174  SAPE      H17X           35.2402868643       16.3473599119       -0.6966773027  MEMB      174             0.0000000000
     20273       174  SAPE      H17Y           34.5916085617       14.6312628484       -1.0899157629  MEMB      174             0.0000000000
     20274       174  SAPE      C318           33.6854373780       15.9966058937       -0.0897154996  MEMB      174             0.0000000000
     20275       174  SAPE      H18X           33.1362145103       16.8496220222       -0.0432445960  MEMB      174             0.0000000000
     20276       174  SAPE      H18Y           33.4039019197       15.3883866583        0.7846912752  MEMB      174             0.0000000000
     20277       174  SAPE      H18Z           33.0126900459       15.7464133850       -0.8578045622  MEMB      174             0.0000000000
     20278       175  CHL1      C3            -24.5536244115      -29.0017043922      -17.3961107339  MEMB      175             0.0000000000
     20279       175  CHL1      H3            -24.3698089761      -27.9089147795      -17.5050699500  MEMB      175             0.0000000000
     20280       175  CHL1      O3            -24.2739565290      -29.6623684954      -18.6206064748  MEMB      175             0.0000000000
     20281       175  CHL1      H3'           -25.0211638641      -29.4886607251      -19.1998059141  MEMB      175             0.0000000000
     20282       175  CHL1      C4            -23.6059803341      -29.5743546426      -16.3458054866  MEMB      175             0.0000000000
     20283       175  CHL1      H4A           -23.7215508574      -30.6777367504      -16.4070111771  MEMB      175             0.0000000000
     20284       175  CHL1      H4B           -22.5650596980      -29.3282608013      -16.6414843205  MEMB      175             0.0000000000
     20285       175  CHL1      C5            -23.9008743960      -29.0630171481      -14.9612002343  MEMB      175             0.0000000000
     20286       175  CHL1      C6            -22.9978396065      -28.3461175382      -14.2699254231  MEMB      175             0.0000000000
     20287       175  CHL1      H6            -21.9973829793      -28.1806415194      -14.6943421927  MEMB      175             0.0000000000
     20288       175  CHL1      C7            -23.1982534746      -27.8790039477      -12.8603073653  MEMB      175             0.0000000000
     20289       175  CHL1      H7A           -22.2512959580      -28.0253623424      -12.3301292217  MEMB      175             0.0000000000
     20290       175  CHL1      H7B           -23.3425998245      -26.7871845002      -12.7669482638  MEMB      175             0.0000000000
     20291       175  CHL1      C8            -24.4095842542      -28.5742114197      -12.1969191411  MEMB      175             0.0000000000
     20292       175  CHL1      H8            -24.1917644289      -29.6474350056      -12.0049134623  MEMB      175             0.0000000000
     20293       175  CHL1      C14           -24.7316290196      -27.8461226364      -10.8761748502  MEMB      175             0.0000000000
     20294       175  CHL1      H14           -24.8725538980      -26.7655999799      -11.0781643088  MEMB      175             0.0000000000
     20295       175  CHL1      C15           -23.8014008967      -27.8850504507       -9.7391353721  MEMB      175             0.0000000000
     20296       175  CHL1      H15A          -23.7418313729      -28.9889729351       -9.8176186292  MEMB      175             0.0000000000
     20297       175  CHL1      H15B          -22.8201386203      -27.4048026797       -9.8452343899  MEMB      175             0.0000000000
     20298       175  CHL1      C16           -24.5151525285      -27.6081902775       -8.4148031390  MEMB      175             0.0000000000
     20299       175  CHL1      H16A          -24.4011372744      -28.4590316744       -7.6987298962  MEMB      175             0.0000000000
     20300       175  CHL1      H16B          -24.1511030644      -26.6952777056       -7.9143650963  MEMB      175             0.0000000000
     20301       175  CHL1      C17           -25.9656443704      -27.5467210600       -8.8498658157  MEMB      175             0.0000000000
     20302       175  CHL1      H17           -26.2274976482      -26.5172582533       -9.1648383723  MEMB      175             0.0000000000
     20303       175  CHL1      C13           -25.9203923683      -28.3810593318      -10.2059711014  MEMB      175             0.0000000000
     20304       175  CHL1      C18           -25.9213051562      -29.9282029965       -9.9912519517  MEMB      175             0.0000000000
     20305       175  CHL1      H18A          -26.8911959654      -30.4064673615       -9.9684910829  MEMB      175             0.0000000000
     20306       175  CHL1      H18B          -25.5611068653      -30.4507406330      -10.8822234981  MEMB      175             0.0000000000
     20307       175  CHL1      H18C          -25.3886828154      -30.2161898657       -9.0781245299  MEMB      175             0.0000000000
     20308       175  CHL1      C12           -26.8002906914      -28.0593795899      -11.3241679719  MEMB      175             0.0000000000
     20309       175  CHL1      H12A          -27.5140788453      -28.6828993715      -10.7908989963  MEMB      175             0.0000000000
     20310       175  CHL1      H12B          -26.9598662718      -26.9566320145      -11.4598388055  MEMB      175             0.0000000000
     20311       175  CHL1      C11           -26.9137078264      -28.8074192276      -12.6131272385  MEMB      175             0.0000000000
     20312       175  CHL1      H11A          -27.2252673569      -29.8514252233      -12.4085624524  MEMB      175             0.0000000000
     20313       175  CHL1      H11B          -27.7451486800      -28.3422838255      -13.2050473434  MEMB      175             0.0000000000
     20314       175  CHL1      C9            -25.5696936422      -28.5601711878      -13.2135727144  MEMB      175             0.0000000000
     20315       175  CHL1      H9            -25.6528760771      -27.4781984721      -13.4937917140  MEMB      175             0.0000000000
     20316       175  CHL1      C10           -25.3219156929      -29.3609905471      -14.4838664182  MEMB      175             0.0000000000
     20317       175  CHL1      C19           -25.5098786883      -30.8881874140      -14.2279075396  MEMB      175             0.0000000000
     20318       175  CHL1      H19A          -24.7750055982      -31.2717260211      -13.4912184449  MEMB      175             0.0000000000
     20319       175  CHL1      H19B          -26.5304639558      -31.1620830191      -13.8895258176  MEMB      175             0.0000000000
     20320       175  CHL1      H19C          -25.3599656150      -31.4211433066      -15.1870401847  MEMB      175             0.0000000000
     20321       175  CHL1      C1            -26.3412108222      -28.8762785499      -15.5538207042  MEMB      175             0.0000000000
     20322       175  CHL1      H1A           -27.3219476415      -29.3350238680      -15.2939360349  MEMB      175             0.0000000000
     20323       175  CHL1      H1B           -26.4419329700      -27.7715106667      -15.4639823422  MEMB      175             0.0000000000
     20324       175  CHL1      C2            -26.0136493159      -29.2596250791      -17.0158306654  MEMB      175             0.0000000000
     20325       175  CHL1      H2A           -26.6676208109      -28.7214511301      -17.7386980874  MEMB      175             0.0000000000
     20326       175  CHL1      H2B           -26.2125345519      -30.3488380694      -17.1091082619  MEMB      175             0.0000000000
     20327       175  CHL1      C20           -26.8672796100      -27.8859356389       -7.6352943656  MEMB      175             0.0000000000
     20328       175  CHL1      H20           -26.7297740669      -28.9800466453       -7.4422764637  MEMB      175             0.0000000000
     20329       175  CHL1      C21           -28.2273941789      -27.4889598441       -8.0382490888  MEMB      175             0.0000000000
     20330       175  CHL1      H21A          -29.0958620191      -28.0757383784       -7.8384763603  MEMB      175             0.0000000000
     20331       175  CHL1      H21B          -28.0165171568      -28.0061991691       -8.9142239098  MEMB      175             0.0000000000
     20332       175  CHL1      H21C          -28.6290198992      -26.5407117867       -8.3680324327  MEMB      175             0.0000000000
     20333       175  CHL1      C22           -26.8425270997      -27.0095750290       -6.4087319370  MEMB      175             0.0000000000
     20334       175  CHL1      H22A          -25.8076986261      -26.6974762151       -6.2730085831  MEMB      175             0.0000000000
     20335       175  CHL1      H22B          -27.4970920722      -26.1136847738       -6.6114722104  MEMB      175             0.0000000000
     20336       175  CHL1      C23           -27.2085674098      -27.5776446308       -5.0503964424  MEMB      175             0.0000000000
     20337       175  CHL1      H23A          -28.2091948956      -27.8444725220       -4.7996419457  MEMB      175             0.0000000000
     20338       175  CHL1      H23B          -26.6696254108      -28.5096805947       -4.8446625739  MEMB      175             0.0000000000
     20339       175  CHL1      C24           -27.1885134719      -26.4330323227       -4.1010330827  MEMB      175             0.0000000000
     20340       175  CHL1      H24A          -26.2305019750      -25.9558750776       -4.2237338703  MEMB      175             0.0000000000
     20341       175  CHL1      H24B          -28.0454975634      -25.7260899546       -4.3587394600  MEMB      175             0.0000000000
     20342       175  CHL1      C25           -27.1417694191      -26.7851844297       -2.6534624591  MEMB      175             0.0000000000
     20343       175  CHL1      H25           -26.4285047739      -27.4760066677       -2.1969570569  MEMB      175             0.0000000000
     20344       175  CHL1      C26           -27.2572349581      -25.5954592459       -1.9613853261  MEMB      175             0.0000000000
     20345       175  CHL1      H26A          -27.3625209281      -25.7591287309       -0.8565136172  MEMB      175             0.0000000000
     20346       175  CHL1      H26B          -26.4217863603      -24.9253791434       -2.0785112469  MEMB      175             0.0000000000
     20347       175  CHL1      H26C          -28.1838773302      -25.1049579897       -2.4150358231  MEMB      175             0.0000000000
     20348       175  CHL1      C27           -28.3296900067      -27.3340004083       -2.3797274343  MEMB      175             0.0000000000
     20349       175  CHL1      H27A          -28.8150931808      -27.2376125322       -1.4642257177  MEMB      175             0.0000000000
     20350       175  CHL1      H27B          -29.1437857790      -26.7265521541       -2.8554165975  MEMB      175             0.0000000000
     20351       175  CHL1      H27C          -28.1925047276      -28.4223714431       -2.6723788639  MEMB      175             0.0000000000
     20352       176  CHL1      C3             36.4431063667      -12.1798315784      -17.3037540903  MEMB      176             0.0000000000
     20353       176  CHL1      H3             37.0677626677      -13.0713124453      -17.0629641888  MEMB      176             0.0000000000
     20354       176  CHL1      O3             36.4846295529      -11.9757152441      -18.7158877663  MEMB      176             0.0000000000
     20355       176  CHL1      H3'            36.0672114160      -11.1155225622      -18.8893506584  MEMB      176             0.0000000000
     20356       176  CHL1      C4             35.0112134931      -12.4228668008      -16.7676342380  MEMB      176             0.0000000000
     20357       176  CHL1      H4A            34.3868040299      -11.5748840840      -17.1159087404  MEMB      176             0.0000000000
     20358       176  CHL1      H4B            34.6248079851      -13.3420276138      -17.2584631060  MEMB      176             0.0000000000
     20359       176  CHL1      C5             34.9356208718      -12.5406244466      -15.2525293324  MEMB      176             0.0000000000
     20360       176  CHL1      C6             34.2864124970      -13.5391093812      -14.6332879228  MEMB      176             0.0000000000
     20361       176  CHL1      H6             33.7123412092      -14.2690118554      -15.2129996757  MEMB      176             0.0000000000
     20362       176  CHL1      C7             34.1535773431      -13.6475048287      -13.1503292481  MEMB      176             0.0000000000
     20363       176  CHL1      H7A            33.0931733537      -13.8338920406      -12.8822288023  MEMB      176             0.0000000000
     20364       176  CHL1      H7B            34.7658547989      -14.4802487808      -12.7329781926  MEMB      176             0.0000000000
     20365       176  CHL1      C8             34.6033653041      -12.3631574896      -12.4392783089  MEMB      176             0.0000000000
     20366       176  CHL1      H8             33.8355565046      -11.6000143913      -12.6223479566  MEMB      176             0.0000000000
     20367       176  CHL1      C14            34.9002074704      -12.7248766198      -11.0155881187  MEMB      176             0.0000000000
     20368       176  CHL1      H14            35.8219332566      -13.3318217897      -11.0936540683  MEMB      176             0.0000000000
     20369       176  CHL1      C15            34.0116172261      -13.7586301383      -10.3076317430  MEMB      176             0.0000000000
     20370       176  CHL1      H15A           33.0454881747      -13.4581421434      -10.6915132941  MEMB      176             0.0000000000
     20371       176  CHL1      H15B           34.0966074691      -14.8151842179      -10.5645174617  MEMB      176             0.0000000000
     20372       176  CHL1      C16            34.4545403371      -13.6702724338       -8.8595860369  MEMB      176             0.0000000000
     20373       176  CHL1      H16A           33.6000015646      -13.3686553881       -8.4221243376  MEMB      176             0.0000000000
     20374       176  CHL1      H16B           34.3612687922      -14.4913826236       -8.1368460048  MEMB      176             0.0000000000
     20375       176  CHL1      C17            35.4458635300      -12.4508012365       -8.7782785549  MEMB      176             0.0000000000
     20376       176  CHL1      H17            36.3341454625      -13.0794279607       -8.9180665947  MEMB      176             0.0000000000
     20377       176  CHL1      C13            35.3621083704      -11.6221471760      -10.0958886341  MEMB      176             0.0000000000
     20378       176  CHL1      C18            34.4678351008      -10.4109509813      -10.1548789658  MEMB      176             0.0000000000
     20379       176  CHL1      H18A           34.1394873747       -9.9519898245      -11.1012053611  MEMB      176             0.0000000000
     20380       176  CHL1      H18B           33.4635380109      -10.6068961836      -10.1346990894  MEMB      176             0.0000000000
     20381       176  CHL1      H18C           34.4750181103       -9.8439348779       -9.2057710695  MEMB      176             0.0000000000
     20382       176  CHL1      C12            36.6501115789      -11.0349809402      -10.6279055426  MEMB      176             0.0000000000
     20383       176  CHL1      H12A           36.9580133585      -10.1390366866      -10.0502677593  MEMB      176             0.0000000000
     20384       176  CHL1      H12B           37.4455789107      -11.7835234752      -10.5097905594  MEMB      176             0.0000000000
     20385       176  CHL1      C11            36.3990167559      -10.6190286554      -12.0953012738  MEMB      176             0.0000000000
     20386       176  CHL1      H11A           35.7159514002       -9.7458526650      -12.1138315674  MEMB      176             0.0000000000
     20387       176  CHL1      H11B           37.3155449362      -10.2461665669      -12.5527404861  MEMB      176             0.0000000000
     20388       176  CHL1      C9             35.8719411406      -11.7798798630      -12.9864243307  MEMB      176             0.0000000000
     20389       176  CHL1      H9             36.6387005869      -12.5872446834      -12.9162518587  MEMB      176             0.0000000000
     20390       176  CHL1      C10            35.7112387263      -11.4659724153      -14.4769646079  MEMB      176             0.0000000000
     20391       176  CHL1      C19            34.8993177835      -10.1496520237      -14.6244301270  MEMB      176             0.0000000000
     20392       176  CHL1      H19A           34.7439669795       -9.8908072487      -15.6861715962  MEMB      176             0.0000000000
     20393       176  CHL1      H19B           33.8925085193      -10.2377006060      -14.1787303444  MEMB      176             0.0000000000
     20394       176  CHL1      H19C           35.4251288124       -9.2922587107      -14.1607504993  MEMB      176             0.0000000000
     20395       176  CHL1      C1             37.1150744417      -11.3099051812      -15.0893925093  MEMB      176             0.0000000000
     20396       176  CHL1      H1A            37.5420601308      -10.4664488607      -14.5393720028  MEMB      176             0.0000000000
     20397       176  CHL1      H1B            37.8069353257      -12.1589547847      -14.8982298053  MEMB      176             0.0000000000
     20398       176  CHL1      C2             37.0649577043      -10.9909683987      -16.5882164487  MEMB      176             0.0000000000
     20399       176  CHL1      H2A            38.0844966685      -10.8081163197      -16.9808739079  MEMB      176             0.0000000000
     20400       176  CHL1      H2B            36.4910066920      -10.0519948651      -16.7450909387  MEMB      176             0.0000000000
     20401       176  CHL1      C20            35.6612565526      -11.7294869629       -7.4448911326  MEMB      176             0.0000000000
     20402       176  CHL1      H20            34.9375449783      -10.9272259487       -7.2234706967  MEMB      176             0.0000000000
     20403       176  CHL1      C21            36.8639624616      -10.8115843476       -7.4466494291  MEMB      176             0.0000000000
     20404       176  CHL1      H21A           37.7241676946      -11.3222985819       -7.8955694725  MEMB      176             0.0000000000
     20405       176  CHL1      H21B           37.0849726958      -10.3945851230       -6.4434171962  MEMB      176             0.0000000000
     20406       176  CHL1      H21C           36.5409591364       -9.9591325979       -8.0549775984  MEMB      176             0.0000000000
     20407       176  CHL1      C22            35.7208912220      -12.7367318069       -6.3207628638  MEMB      176             0.0000000000
     20408       176  CHL1      H22A           34.8109728422      -13.3710345864       -6.2883714967  MEMB      176             0.0000000000
     20409       176  CHL1      H22B           36.6200212171      -13.3622322242       -6.5085971273  MEMB      176             0.0000000000
     20410       176  CHL1      C23            35.8716391502      -12.0416446239       -5.0094482818  MEMB      176             0.0000000000
     20411       176  CHL1      H23A           36.9743341262      -11.9673452800       -4.8197922367  MEMB      176             0.0000000000
     20412       176  CHL1      H23B           35.4511874338      -11.0091689590       -5.0459995580  MEMB      176             0.0000000000
     20413       176  CHL1      C24            35.1216230940      -12.7607930272       -3.9113002869  MEMB      176             0.0000000000
     20414       176  CHL1      H24A           34.0911977966      -12.9555976421       -4.0925775881  MEMB      176             0.0000000000
     20415       176  CHL1      H24B           35.4370843864      -13.7656280263       -3.7241860012  MEMB      176             0.0000000000
     20416       176  CHL1      C25            35.0532332421      -11.9855110560       -2.6977269545  MEMB      176             0.0000000000
     20417       176  CHL1      H25            34.3646953499      -11.0932298798       -2.8609899518  MEMB      176             0.0000000000
     20418       176  CHL1      C26            35.2133202020      -12.6614719181       -1.3132894139  MEMB      176             0.0000000000
     20419       176  CHL1      H26A           34.3419774781      -13.2692793606       -1.2939527758  MEMB      176             0.0000000000
     20420       176  CHL1      H26B           35.2832603650      -13.6610675369       -0.9618657957  MEMB      176             0.0000000000
     20421       176  CHL1      H26C           35.2607568405      -11.8705101435       -0.5001030483  MEMB      176             0.0000000000
     20422       176  CHL1      C27            36.0543155807      -11.2356125132       -2.4351965108  MEMB      176             0.0000000000
     20423       176  CHL1      H27A           35.6926168094      -10.4711847783       -1.6839601915  MEMB      176             0.0000000000
     20424       176  CHL1      H27B           36.7896437318      -11.7594493362       -1.8079471990  MEMB      176             0.0000000000
     20425       176  CHL1      H27C           36.7786770398      -10.9807329445       -3.1890795231  MEMB      176             0.0000000000
     20426       177  SAPE      N              19.1225884808      -33.6780539927      -17.3897614197  MEMB      177             0.0000000000
     20427       177  SAPE      HN1            19.5904505611      -32.8178713080      -17.0377094053  MEMB      177             0.0000000000
     20428       177  SAPE      HN2            18.6871027627      -34.2032899643      -16.6090479776  MEMB      177             0.0000000000
     20429       177  SAPE      HN3            19.8672901401      -34.2707136254      -17.8255370513  MEMB      177             0.0000000000
     20430       177  SAPE      C12            18.0655906406      -33.3883032752      -18.4003430840  MEMB      177             0.0000000000
     20431       177  SAPE      H12A           17.1696651248      -33.0288936003      -17.8555842945  MEMB      177             0.0000000000
     20432       177  SAPE      H12B           17.8508458620      -34.3441496834      -18.9244555982  MEMB      177             0.0000000000
     20433       177  SAPE      C11            18.4878505556      -32.2689904191      -19.3481440823  MEMB      177             0.0000000000
     20434       177  SAPE      H11A           18.3710897511      -31.3140305157      -18.7865044695  MEMB      177             0.0000000000
     20435       177  SAPE      H11B           17.7882743603      -32.2525515287      -20.2173739771  MEMB      177             0.0000000000
     20436       177  SAPE      P              20.2228423027      -33.2635509436      -21.0167580227  MEMB      177             0.0000000000
     20437       177  SAPE      O13            19.3538629829      -34.4587141406      -21.0211409104  MEMB      177             0.0000000000
     20438       177  SAPE      O14            20.1730505406      -32.3454903947      -22.1697760460  MEMB      177             0.0000000000
     20439       177  SAPE      O12            19.8459650589      -32.3985195056      -19.7412116178  MEMB      177             0.0000000000
     20440       177  SAPE      O11            21.7387450104      -33.6473410175      -20.7153073760  MEMB      177             0.0000000000
     20441       177  SAPE      C1             22.5686653258      -32.8842579031      -19.8591443764  MEMB      177             0.0000000000
     20442       177  SAPE      HA             23.3851675108      -32.4535763353      -20.4714897003  MEMB      177             0.0000000000
     20443       177  SAPE      HB             22.0486191091      -32.0612037103      -19.3212101892  MEMB      177             0.0000000000
     20444       177  SAPE      C2             23.1969286062      -33.7490353789      -18.7515889273  MEMB      177             0.0000000000
     20445       177  SAPE      HS             23.8239199986      -34.4592973917      -19.2960001265  MEMB      177             0.0000000000
     20446       177  SAPE      O21            22.1859749117      -34.4163995038      -17.9866457243  MEMB      177             0.0000000000
     20447       177  SAPE      C21            22.2344302713      -35.7314994181      -18.0047154591  MEMB      177             0.0000000000
     20448       177  SAPE      O22            23.1155302443      -36.4403052263      -18.4569074372  MEMB      177             0.0000000000
     20449       177  SAPE      C22            21.0073675554      -36.1943189910      -17.2416631981  MEMB      177             0.0000000000
     20450       177  SAPE      H2R            20.0706708786      -36.2168589402      -17.8212235229  MEMB      177             0.0000000000
     20451       177  SAPE      H2S            21.2701066886      -37.2128752609      -17.1549661044  MEMB      177             0.0000000000
     20452       177  SAPE      C3             24.0708050910      -32.8237906441      -17.8626983582  MEMB      177             0.0000000000
     20453       177  SAPE      HX             24.7149454965      -32.2663361822      -18.5748938731  MEMB      177             0.0000000000
     20454       177  SAPE      HY             24.7361204550      -33.4153651480      -17.1880087907  MEMB      177             0.0000000000
     20455       177  SAPE      O31            23.2365533288      -31.8450824815      -17.2249553561  MEMB      177             0.0000000000
     20456       177  SAPE      C31            23.2410024845      -31.7824044978      -15.9003849920  MEMB      177             0.0000000000
     20457       177  SAPE      O32            24.0619280894      -32.2931547315      -15.1895445297  MEMB      177             0.0000000000
     20458       177  SAPE      C32            22.0072463003      -31.0932186878      -15.3483461784  MEMB      177             0.0000000000
     20459       177  SAPE      H2X            22.3514796358      -30.2283905384      -14.7504041443  MEMB      177             0.0000000000
     20460       177  SAPE      H2Y            21.5546884376      -31.8193183681      -14.6394569507  MEMB      177             0.0000000000
     20461       177  SAPE      C23            20.9147986919      -35.6904702779      -15.7855037168  MEMB      177             0.0000000000
     20462       177  SAPE      H3R            20.3834229137      -34.7412619517      -15.7152516563  MEMB      177             0.0000000000
     20463       177  SAPE      H3S            21.9343863138      -35.5628924020      -15.3472494442  MEMB      177             0.0000000000
     20464       177  SAPE      C24            20.1916014648      -36.6762502633      -14.8790760488  MEMB      177             0.0000000000
     20465       177  SAPE      H4R            20.9835585790      -37.4269020781      -14.7414459503  MEMB      177             0.0000000000
     20466       177  SAPE      H4S            19.3606811282      -37.1479273884      -15.4558710033  MEMB      177             0.0000000000
     20467       177  SAPE      C25            19.7206357102      -36.3128725068      -13.5004022637  MEMB      177             0.0000000000
     20468       177  SAPE      H5R            18.9123141341      -36.9648827348      -13.1240986252  MEMB      177             0.0000000000
     20469       177  SAPE      C26            20.1334684623      -35.3013076298      -12.7142530199  MEMB      177             0.0000000000
     20470       177  SAPE      H6R            19.6457699910      -35.2009248970      -11.7349203227  MEMB      177             0.0000000000
     20471       177  SAPE      C27            21.1780605488      -34.2392179997      -12.9668797447  MEMB      177             0.0000000000
     20472       177  SAPE      H7R            20.9310459377      -33.3201461166      -12.3893363847  MEMB      177             0.0000000000
     20473       177  SAPE      H7S            21.2062553062      -33.8983400183      -14.0156019021  MEMB      177             0.0000000000
     20474       177  SAPE      C28            22.5186090874      -34.7723330656      -12.5689717305  MEMB      177             0.0000000000
     20475       177  SAPE      H8R            22.8033352742      -35.7703091071      -12.9194076646  MEMB      177             0.0000000000
     20476       177  SAPE      C29            23.3840492499      -34.1337581528      -11.8034090363  MEMB      177             0.0000000000
     20477       177  SAPE      H9R            24.2632481305      -34.6427174035      -11.4207243594  MEMB      177             0.0000000000
     20478       177  SAPE      C210           23.2699052095      -32.8120909042      -11.1819362678  MEMB      177             0.0000000000
     20479       177  SAPE      H10R           22.7753016185      -32.0307339697      -11.7789206441  MEMB      177             0.0000000000
     20480       177  SAPE      H10S           24.3550741275      -32.5744944497      -11.1910270530  MEMB      177             0.0000000000
     20481       177  SAPE      C211           22.6448709460      -32.8374074300       -9.8150236206  MEMB      177             0.0000000000
     20482       177  SAPE      H11R           21.5817781921      -32.7836203643       -9.6422456694  MEMB      177             0.0000000000
     20483       177  SAPE      C212           23.2096935058      -33.2691149908       -8.7406959805  MEMB      177             0.0000000000
     20484       177  SAPE      H12R           22.7552966406      -33.0035022176       -7.7892454044  MEMB      177             0.0000000000
     20485       177  SAPE      C213           24.5552847566      -33.7871541700       -8.7962099560  MEMB      177             0.0000000000
     20486       177  SAPE      H13R           25.1677888275      -33.4604015510       -7.9881861423  MEMB      177             0.0000000000
     20487       177  SAPE      H13S           25.2498402616      -33.5219902709       -9.6959709249  MEMB      177             0.0000000000
     20488       177  SAPE      C214           24.5884562227      -35.0887912196       -8.3670441195  MEMB      177             0.0000000000
     20489       177  SAPE      H14R           25.4426824771      -35.1781381635       -9.0468902199  MEMB      177             0.0000000000
     20490       177  SAPE      C215           24.3417893648      -35.7105395704       -7.1585807201  MEMB      177             0.0000000000
     20491       177  SAPE      H15R           25.2234803866      -36.2912688342       -6.7724492039  MEMB      177             0.0000000000
     20492       177  SAPE      C216           23.8747498446      -35.0675575891       -5.8296757155  MEMB      177             0.0000000000
     20493       177  SAPE      H16R           23.5640280352      -33.9661080024       -5.7187373945  MEMB      177             0.0000000000
     20494       177  SAPE      H16S           24.5852390310      -35.0009608100       -5.0380867961  MEMB      177             0.0000000000
     20495       177  SAPE      C217           23.1001692457      -35.7804016251       -5.0341331325  MEMB      177             0.0000000000
     20496       177  SAPE      H17R           23.5508633977      -36.7789706217       -5.2460801029  MEMB      177             0.0000000000
     20497       177  SAPE      H17S           22.3702815834      -35.2961880863       -5.7372323668  MEMB      177             0.0000000000
     20498       177  SAPE      C218           23.2476647734      -35.1445260062       -3.6433037201  MEMB      177             0.0000000000
     20499       177  SAPE      H18R           24.0666603616      -35.5113460779       -2.9847775548  MEMB      177             0.0000000000
     20500       177  SAPE      H18S           22.3056505947      -35.5549141702       -3.4138133804  MEMB      177             0.0000000000
     20501       177  SAPE      C219           23.2026926458      -33.6433908506       -3.4719532715  MEMB      177             0.0000000000
     20502       177  SAPE      H19R           22.5962200395      -33.0644296866       -4.2026120382  MEMB      177             0.0000000000
     20503       177  SAPE      H19S           24.2732879715      -33.3356472615       -3.6271463939  MEMB      177             0.0000000000
     20504       177  SAPE      C220           22.6732786804      -33.4127945579       -2.0758768874  MEMB      177             0.0000000000
     20505       177  SAPE      H20R           22.4645075581      -32.3328250683       -1.9384107330  MEMB      177             0.0000000000
     20506       177  SAPE      H20S           23.5041866806      -33.6849917591       -1.3833103591  MEMB      177             0.0000000000
     20507       177  SAPE      H20T           21.8087534022      -34.0238175989       -1.8292126300  MEMB      177             0.0000000000
     20508       177  SAPE      C33            21.0288942337      -30.6920793734      -16.4747279045  MEMB      177             0.0000000000
     20509       177  SAPE      H3X            20.6754978600      -31.6238921967      -16.9625795858  MEMB      177             0.0000000000
     20510       177  SAPE      H3Y            21.5802298505      -30.1261243181      -17.2560930604  MEMB      177             0.0000000000
     20511       177  SAPE      C34            19.7994797904      -29.8853864609      -16.0391214716  MEMB      177             0.0000000000
     20512       177  SAPE      H4X            19.1320597754      -29.7621227148      -16.9198120411  MEMB      177             0.0000000000
     20513       177  SAPE      H4Y            20.0388352362      -28.8634646649      -15.6628799288  MEMB      177             0.0000000000
     20514       177  SAPE      C35            19.0086104753      -30.6418454156      -14.9939293647  MEMB      177             0.0000000000
     20515       177  SAPE      H5X            19.6493828935      -30.8787697845      -14.1182907484  MEMB      177             0.0000000000
     20516       177  SAPE      H5Y            18.6481310193      -31.5909222543      -15.4466652994  MEMB      177             0.0000000000
     20517       177  SAPE      C36            17.8323854065      -29.8775882005      -14.4553563405  MEMB      177             0.0000000000
     20518       177  SAPE      H6X            17.1690269924      -29.4790216794      -15.2607343543  MEMB      177             0.0000000000
     20519       177  SAPE      H6Y            18.1428045028      -29.0285347138      -13.7995416032  MEMB      177             0.0000000000
     20520       177  SAPE      C37            17.0296752970      -30.8042754132      -13.5757285315  MEMB      177             0.0000000000
     20521       177  SAPE      H7X            16.5725643462      -31.6336933292      -14.1654470012  MEMB      177             0.0000000000
     20522       177  SAPE      H7Y            16.2524180883      -30.0573232944      -13.2970547219  MEMB      177             0.0000000000
     20523       177  SAPE      C38            17.7359377013      -31.3554502762      -12.3025473245  MEMB      177             0.0000000000
     20524       177  SAPE      H8X            18.3143427583      -30.5342550189      -11.8263136311  MEMB      177             0.0000000000
     20525       177  SAPE      H8Y            18.3984333614      -32.2032378430      -12.5313116356  MEMB      177             0.0000000000
     20526       177  SAPE      C39            16.7779936129      -31.8838207971      -11.2415671658  MEMB      177             0.0000000000
     20527       177  SAPE      H9X            16.0195216834      -32.5731773054      -11.6735915308  MEMB      177             0.0000000000
     20528       177  SAPE      H9Y            16.2751278386      -30.9592942787      -10.9825814785  MEMB      177             0.0000000000
     20529       177  SAPE      C310           17.2568844428      -32.4349033974       -9.9104208466  MEMB      177             0.0000000000
     20530       177  SAPE      H10X           17.8538926876      -33.3523474110      -10.0592655248  MEMB      177             0.0000000000
     20531       177  SAPE      H10Y           16.3036430565      -32.6755586886       -9.3690661610  MEMB      177             0.0000000000
     20532       177  SAPE      C311           18.0822409928      -31.4693926914       -9.0638305949  MEMB      177             0.0000000000
     20533       177  SAPE      H11X           17.5233884080      -30.5070262931       -8.9950653127  MEMB      177             0.0000000000
     20534       177  SAPE      H11Y           19.0740915466      -31.3062785198       -9.5337579476  MEMB      177             0.0000000000
     20535       177  SAPE      C312           18.3309142679      -32.0268542603       -7.6647241999  MEMB      177             0.0000000000
     20536       177  SAPE      H12X           17.5635816498      -32.8070775625       -7.4615105221  MEMB      177             0.0000000000
     20537       177  SAPE      H12Y           18.2737268765      -31.2075949634       -6.9132168312  MEMB      177             0.0000000000
     20538       177  SAPE      C313           19.6596547215      -32.7494064594       -7.4853503491  MEMB      177             0.0000000000
     20539       177  SAPE      H13X           20.4968440168      -32.1035647085       -7.8312695112  MEMB      177             0.0000000000
     20540       177  SAPE      H13Y           19.6266695898      -33.6532052049       -8.1351860251  MEMB      177             0.0000000000
     20541       177  SAPE      C314           19.8387513004      -33.1748340368       -6.0188278020  MEMB      177             0.0000000000
     20542       177  SAPE      H14X           19.9748209765      -32.2593395972       -5.3960989096  MEMB      177             0.0000000000
     20543       177  SAPE      H14Y           20.7694136970      -33.7778845219       -5.9448760920  MEMB      177             0.0000000000
     20544       177  SAPE      C315           18.6276501791      -33.9418640593       -5.4375592551  MEMB      177             0.0000000000
     20545       177  SAPE      H15X           18.3775440848      -34.8516244277       -6.0241838641  MEMB      177             0.0000000000
     20546       177  SAPE      H15Y           17.7132283763      -33.3115636438       -5.4810303578  MEMB      177             0.0000000000
     20547       177  SAPE      C316           18.8442372804      -34.3765394589       -3.9863147287  MEMB      177             0.0000000000
     20548       177  SAPE      H16X           19.1390409884      -33.4914357931       -3.3733705884  MEMB      177             0.0000000000
     20549       177  SAPE      H16Y           19.6640104854      -35.1303846974       -3.9916444531  MEMB      177             0.0000000000
     20550       177  SAPE      C317           17.5756178594      -34.9915328990       -3.3819196882  MEMB      177             0.0000000000
     20551       177  SAPE      H17X           17.0058634120      -35.5067179446       -4.1855166063  MEMB      177             0.0000000000
     20552       177  SAPE      H17Y           16.9449169808      -34.1411982959       -3.0314033065  MEMB      177             0.0000000000
     20553       177  SAPE      C318           17.8295352560      -35.9843485161       -2.2406820529  MEMB      177             0.0000000000
     20554       177  SAPE      H18X           18.5073997427      -35.5230599512       -1.4937866573  MEMB      177             0.0000000000
     20555       177  SAPE      H18Y           18.3026241153      -36.9284405703       -2.5930334926  MEMB      177             0.0000000000
     20556       177  SAPE      H18Z           16.8741849731      -36.2555794765       -1.7428288315  MEMB      177             0.0000000000
     20557       178  SLPC      N              30.3521505248       21.1753276515      -18.1547915873  MEMB      178             0.0000000000
     20558       178  SLPC      C13            31.1591444980       21.2025645421      -19.3663557146  MEMB      178             0.0000000000
     20559       178  SLPC      H13A           31.9279662092       21.9365469718      -19.1991206069  MEMB      178             0.0000000000
     20560       178  SLPC      H13B           31.5416290423       20.2112559205      -19.5304018999  MEMB      178             0.0000000000
     20561       178  SLPC      H13C           30.5415746341       21.4621349405      -20.2253122883  MEMB      178             0.0000000000
     20562       178  SLPC      C14            29.4113612330       20.1626160667      -18.3584081532  MEMB      178             0.0000000000
     20563       178  SLPC      H14A           28.7106282885       20.1252044014      -17.5024787933  MEMB      178             0.0000000000
     20564       178  SLPC      H14B           28.7272273636       20.4350094599      -19.1666074740  MEMB      178             0.0000000000
     20565       178  SLPC      H14C           29.6580977642       19.1142085478      -18.5277599314  MEMB      178             0.0000000000
     20566       178  SLPC      C15            29.7164867420       22.5238712518      -17.9346532570  MEMB      178             0.0000000000
     20567       178  SLPC      H15A           28.8952326629       22.7877523474      -18.5833213737  MEMB      178             0.0000000000
     20568       178  SLPC      H15B           29.2502632693       22.4226346951      -16.9582750571  MEMB      178             0.0000000000
     20569       178  SLPC      H15C           30.4395211508       23.2953275855      -17.7118191663  MEMB      178             0.0000000000
     20570       178  SLPC      C12            30.9665215219       20.6765643780      -16.8849249664  MEMB      178             0.0000000000
     20571       178  SLPC      H12A           31.0861212369       19.6075755061      -16.9536020102  MEMB      178             0.0000000000
     20572       178  SLPC      H12B           30.2870740330       20.8486223507      -16.0397613127  MEMB      178             0.0000000000
     20573       178  SLPC      C11            32.2456162569       21.2915375521      -16.5323502934  MEMB      178             0.0000000000
     20574       178  SLPC      H11A           32.9209079590       21.1890898767      -17.4264756445  MEMB      178             0.0000000000
     20575       178  SLPC      H11B           32.7238509649       20.7191902589      -15.6938155245  MEMB      178             0.0000000000
     20576       178  SLPC      P              33.2033669266       23.4390176091      -16.1720921049  MEMB      178             0.0000000000
     20577       178  SLPC      O13            34.0621990998       22.5078655306      -15.3809383937  MEMB      178             0.0000000000
     20578       178  SLPC      O14            33.6164982264       23.6999162888      -17.5691234360  MEMB      178             0.0000000000
     20579       178  SLPC      O12            31.8867217406       22.6440326188      -16.1781644595  MEMB      178             0.0000000000
     20580       178  SLPC      O11            32.9440888671       24.8585437822      -15.4132504038  MEMB      178             0.0000000000
     20581       178  SLPC      C1             33.6009395375       26.1690507313      -15.5169421257  MEMB      178             0.0000000000
     20582       178  SLPC      HA             34.5914009102       26.2365614014      -15.1855328500  MEMB      178             0.0000000000
     20583       178  SLPC      HB             33.7545755692       26.5616115784      -16.5311511645  MEMB      178             0.0000000000
     20584       178  SLPC      C2             33.2970866363       27.2807226178      -14.5269998220  MEMB      178             0.0000000000
     20585       178  SLPC      HS             34.2414241750       27.8356155587      -14.1812028670  MEMB      178             0.0000000000
     20586       178  SLPC      O21            32.5543743031       26.6407703431      -13.4965122800  MEMB      178             0.0000000000
     20587       178  SLPC      C21            32.1242538944       27.5212993845      -12.6529863519  MEMB      178             0.0000000000
     20588       178  SLPC      O22            32.3994739369       28.7068798015      -12.7478522404  MEMB      178             0.0000000000
     20589       178  SLPC      C22            31.6840577357       26.7349203164      -11.3988163265  MEMB      178             0.0000000000
     20590       178  SLPC      H2R            31.6668038186       25.6540753503      -11.5329951759  MEMB      178             0.0000000000
     20591       178  SLPC      H2S            32.4089768255       26.6862988691      -10.6231093142  MEMB      178             0.0000000000
     20592       178  SLPC      C3             32.4772550540       28.1450493678      -15.3934715419  MEMB      178             0.0000000000
     20593       178  SLPC      HX             33.1700166900       28.5782845038      -16.1583428098  MEMB      178             0.0000000000
     20594       178  SLPC      HY             31.9944973054       28.9876260431      -14.8807001542  MEMB      178             0.0000000000
     20595       178  SLPC      O31            31.5750915908       27.1925072916      -15.9981782862  MEMB      178             0.0000000000
     20596       178  SLPC      C31            30.3855506968       27.1043631186      -15.4962333064  MEMB      178             0.0000000000
     20597       178  SLPC      O32            29.9243382160       27.8636594006      -14.6627275536  MEMB      178             0.0000000000
     20598       178  SLPC      C32            29.6988874046       25.9336045597      -16.1475085918  MEMB      178             0.0000000000
     20599       178  SLPC      H2X            30.4421490110       25.1366789298      -16.3756805794  MEMB      178             0.0000000000
     20600       178  SLPC      H2Y            29.2207617203       26.2902848930      -17.0803402358  MEMB      178             0.0000000000
     20601       178  SLPC      C23            30.5742794116       27.5262285804      -10.7714986307  MEMB      178             0.0000000000
     20602       178  SLPC      H3R            29.8369887815       27.5578189335      -11.5719248674  MEMB      178             0.0000000000
     20603       178  SLPC      H3S            30.8413611102       28.5819730307      -10.7744584336  MEMB      178             0.0000000000
     20604       178  SLPC      C24            29.8639792442       27.0412234420       -9.4949515455  MEMB      178             0.0000000000
     20605       178  SLPC      H4R            29.4390538043       26.0636736903       -9.6930934998  MEMB      178             0.0000000000
     20606       178  SLPC      H4S            29.0968142202       27.8182358917       -9.2715615549  MEMB      178             0.0000000000
     20607       178  SLPC      C25            30.5123743465       26.7576677424       -8.1751148109  MEMB      178             0.0000000000
     20608       178  SLPC      H5R            31.4857193471       26.1658867311       -8.1785418401  MEMB      178             0.0000000000
     20609       178  SLPC      H5S            29.8670484938       26.7197785886       -7.2770353605  MEMB      178             0.0000000000
     20610       178  SLPC      C26            30.9189537739       28.0034837111       -7.7220353148  MEMB      178             0.0000000000
     20611       178  SLPC      H6R            31.6716269031       28.0250304842       -8.5734784696  MEMB      178             0.0000000000
     20612       178  SLPC      H6S            31.7146311249       27.7621311850       -7.0109583005  MEMB      178             0.0000000000
     20613       178  SLPC      C27            29.9642804554       29.3261776076       -7.2706076522  MEMB      178             0.0000000000
     20614       178  SLPC      H7R            29.0793461557       29.0277748165       -6.8932616668  MEMB      178             0.0000000000
     20615       178  SLPC      H7S            29.5133747060       29.7793888271       -8.1418929527  MEMB      178             0.0000000000
     20616       178  SLPC      C28            30.3841576587       30.8507547721       -6.8124322592  MEMB      178             0.0000000000
     20617       178  SLPC      H8R            31.2816661902       31.4999791547       -7.1970638493  MEMB      178             0.0000000000
     20618       178  SLPC      H8S            30.7067387199       30.8178503410       -5.8630823546  MEMB      178             0.0000000000
     20619       178  SLPC      C29            29.8678004175       31.7708093478       -6.0654877392  MEMB      178             0.0000000000
     20620       178  SLPC      H9R            29.9043139802       32.4010117651       -6.9594672122  MEMB      178             0.0000000000
     20621       178  SLPC      C210           28.9627995332       31.8955278161       -5.1253294439  MEMB      178             0.0000000000
     20622       178  SLPC      H10R           28.4585842879       32.7658182306       -5.1841816382  MEMB      178             0.0000000000
     20623       178  SLPC      C211           28.1263028753       30.9075993138       -4.5356829086  MEMB      178             0.0000000000
     20624       178  SLPC      H11R           28.8338246873       30.1568576215       -4.8644224352  MEMB      178             0.0000000000
     20625       178  SLPC      H11S           27.2546680712       30.4508400361       -4.9903441860  MEMB      178             0.0000000000
     20626       178  SLPC      C212           27.7561985137       31.7655320197       -3.3499077246  MEMB      178             0.0000000000
     20627       178  SLPC      H12R           27.5135981783       32.7983127878       -3.5200779353  MEMB      178             0.0000000000
     20628       178  SLPC      C213           27.9451304850       31.6142027760       -2.1100679206  MEMB      178             0.0000000000
     20629       178  SLPC      H13R           27.6098299706       32.1692182602       -1.2592275528  MEMB      178             0.0000000000
     20630       178  SLPC      C214           28.5655546876       30.5302244224       -1.7027677514  MEMB      178             0.0000000000
     20631       178  SLPC      H14R           27.9376711556       29.6635349057       -2.0497215041  MEMB      178             0.0000000000
     20632       178  SLPC      H14S           27.9837566638       30.3914206987       -0.7594180464  MEMB      178             0.0000000000
     20633       178  SLPC      C215           30.2396077414       30.5120477290       -1.8648613969  MEMB      178             0.0000000000
     20634       178  SLPC      H15R           30.6017954195       30.3307809376       -2.8715604669  MEMB      178             0.0000000000
     20635       178  SLPC      H15S           30.8254932627       29.6983364309       -1.3564245705  MEMB      178             0.0000000000
     20636       178  SLPC      C216           31.2836912857       31.1852627679       -1.1055183388  MEMB      178             0.0000000000
     20637       178  SLPC      H16R           30.9088795546       31.3307124136       -0.0968421567  MEMB      178             0.0000000000
     20638       178  SLPC      H16S           31.1346582939       31.9246113867       -1.8327392297  MEMB      178             0.0000000000
     20639       178  SLPC      C217           32.6109534590       30.4335793879       -1.2190953113  MEMB      178             0.0000000000
     20640       178  SLPC      H17R           32.6660075931       29.7341538009       -0.3649512964  MEMB      178             0.0000000000
     20641       178  SLPC      H17S           33.3432780432       31.2296148866       -1.0951957012  MEMB      178             0.0000000000
     20642       178  SLPC      C218           32.7540676316       29.6170037598       -2.5425206213  MEMB      178             0.0000000000
     20643       178  SLPC      H18R           32.5952603372       30.4320563389       -3.2429831623  MEMB      178             0.0000000000
     20644       178  SLPC      H18S           32.5971516201       28.5276552831       -2.6099379243  MEMB      178             0.0000000000
     20645       178  SLPC      H18T           33.6756697913       29.3319131595       -3.0941987465  MEMB      178             0.0000000000
     20646       178  SLPC      C33            28.6507446580       25.3927843116      -15.1909418580  MEMB      178             0.0000000000
     20647       178  SLPC      H3X            28.0879242232       24.6201174231      -15.7732462902  MEMB      178             0.0000000000
     20648       178  SLPC      H3Y            27.9087956600       26.1925585199      -14.9653750879  MEMB      178             0.0000000000
     20649       178  SLPC      C34            29.3255207092       24.8538386981      -13.8942509735  MEMB      178             0.0000000000
     20650       178  SLPC      H4X            28.6987531721       25.1266193748      -12.9960268374  MEMB      178             0.0000000000
     20651       178  SLPC      H4Y            30.3949323871       25.0690333732      -13.7894203957  MEMB      178             0.0000000000
     20652       178  SLPC      C35            29.4736401314       23.3578342700      -13.9121967289  MEMB      178             0.0000000000
     20653       178  SLPC      H5X            29.6572712525       22.8344018733      -14.8677046351  MEMB      178             0.0000000000
     20654       178  SLPC      H5Y            28.4247890931       23.5441485368      -14.0162045596  MEMB      178             0.0000000000
     20655       178  SLPC      C36            29.8185668586       22.5744285574      -12.6069554070  MEMB      178             0.0000000000
     20656       178  SLPC      H6X            29.5451688773       21.4998178476      -12.5729722185  MEMB      178             0.0000000000
     20657       178  SLPC      H6Y            29.2812143763       22.9681344231      -11.7215743558  MEMB      178             0.0000000000
     20658       178  SLPC      C37            31.3119081295       22.5735596678      -12.4203543899  MEMB      178             0.0000000000
     20659       178  SLPC      H7X            31.6172324920       23.6374849755      -12.3412478223  MEMB      178             0.0000000000
     20660       178  SLPC      H7Y            31.7965243631       22.1796931550      -13.3446474256  MEMB      178             0.0000000000
     20661       178  SLPC      C38            31.7760598006       21.6918821402      -11.2594072169  MEMB      178             0.0000000000
     20662       178  SLPC      H8X            31.3419569906       20.6753465562      -11.3556199030  MEMB      178             0.0000000000
     20663       178  SLPC      H8Y            31.4989891713       22.1349639970      -10.2804549967  MEMB      178             0.0000000000
     20664       178  SLPC      C39            33.2729254979       21.5060755283      -11.2728435453  MEMB      178             0.0000000000
     20665       178  SLPC      H9X            33.5949215445       21.1981613280      -12.3038632909  MEMB      178             0.0000000000
     20666       178  SLPC      H9Y            33.6116882153       20.7419754893      -10.5647946167  MEMB      178             0.0000000000
     20667       178  SLPC      C310           33.9527960814       22.7960432362      -10.8685559955  MEMB      178             0.0000000000
     20668       178  SLPC      H10X           33.4297235374       23.4018221681      -11.6087588647  MEMB      178             0.0000000000
     20669       178  SLPC      H10Y           35.0552664093       22.8225218005      -10.9724541374  MEMB      178             0.0000000000
     20670       178  SLPC      C311           33.6834365162       23.4292976901       -9.5236720517  MEMB      178             0.0000000000
     20671       178  SLPC      H11X           33.4676438492       22.5366901016       -8.9276511354  MEMB      178             0.0000000000
     20672       178  SLPC      H11Y           32.7672904700       24.0331780553       -9.6448875620  MEMB      178             0.0000000000
     20673       178  SLPC      C312           34.7893737717       24.2985798158       -8.8620497797  MEMB      178             0.0000000000
     20674       178  SLPC      H12X           35.1053535491       25.2777922068       -9.2192081799  MEMB      178             0.0000000000
     20675       178  SLPC      H12Y           35.7605574782       23.7712585322       -8.9384071807  MEMB      178             0.0000000000
     20676       178  SLPC      C313           34.2415562709       24.9403660580       -7.5832655674  MEMB      178             0.0000000000
     20677       178  SLPC      H13X           33.2809790972       25.4076048828       -7.7234752067  MEMB      178             0.0000000000
     20678       178  SLPC      H13Y           34.9940969650       25.6907878044       -7.2114550549  MEMB      178             0.0000000000
     20679       178  SLPC      C314           33.5158094518       23.9946322129       -6.6161045493  MEMB      178             0.0000000000
     20680       178  SLPC      H14X           34.4970819691       23.8610849324       -6.6517051416  MEMB      178             0.0000000000
     20681       178  SLPC      H14Y           33.1735373702       23.0030383280       -6.9556526464  MEMB      178             0.0000000000
     20682       178  SLPC      C315           33.6705735839       24.0372040672       -5.1153916243  MEMB      178             0.0000000000
     20683       178  SLPC      H15X           34.1350623521       23.1636947328       -4.5794860592  MEMB      178             0.0000000000
     20684       178  SLPC      H15Y           32.5874975208       23.9213581004       -5.0168356584  MEMB      178             0.0000000000
     20685       178  SLPC      C316           34.3255282741       25.3305888270       -4.6983733695  MEMB      178             0.0000000000
     20686       178  SLPC      H16X           33.9565489548       26.1832368282       -5.3115396467  MEMB      178             0.0000000000
     20687       178  SLPC      H16Y           35.4328533212       25.3049581991       -4.8391806767  MEMB      178             0.0000000000
     20688       178  SLPC      C317           34.0608710955       25.5700612288       -3.2459931606  MEMB      178             0.0000000000
     20689       178  SLPC      H17X           33.7321850734       24.6337507415       -2.7506176344  MEMB      178             0.0000000000
     20690       178  SLPC      H17Y           33.2364199534       26.3164958154       -3.1938479294  MEMB      178             0.0000000000
     20691       178  SLPC      C318           35.3018357413       26.1124241611       -2.5931913562  MEMB      178             0.0000000000
     20692       178  SLPC      H18X           36.2184363708       25.5015954217       -2.6527821025  MEMB      178             0.0000000000
     20693       178  SLPC      H18Y           35.1095234899       26.3238612151       -1.5240345608  MEMB      178             0.0000000000
     20694       178  SLPC      H18Z           35.5007878800       27.0518503552       -3.1564368876  MEMB      178             0.0000000000
     20695       179  CHL1      C3             21.7913310946       32.2519931460      -17.2815349009  MEMB      179             0.0000000000
     20696       179  CHL1      H3             22.8350175249       32.5501403718      -17.0043683023  MEMB      179             0.0000000000
     20697       179  CHL1      O3             21.7293762176       32.1733069888      -18.7015365996  MEMB      179             0.0000000000
     20698       179  CHL1      H3'            21.9983443979       31.2679907515      -18.8707360742  MEMB      179             0.0000000000
     20699       179  CHL1      C4             21.3446331285       30.9473528074      -16.6667810152  MEMB      179             0.0000000000
     20700       179  CHL1      H4A            20.2969001898       30.7927895951      -16.9986779318  MEMB      179             0.0000000000
     20701       179  CHL1      H4B            21.9752238789       30.1422621622      -17.0879235473  MEMB      179             0.0000000000
     20702       179  CHL1      C5             21.4175259097       30.9983221583      -15.1539846938  MEMB      179             0.0000000000
     20703       179  CHL1      C6             22.2928988033       30.2226603984      -14.5332398775  MEMB      179             0.0000000000
     20704       179  CHL1      H6             22.8745510363       29.5092409718      -15.1425488164  MEMB      179             0.0000000000
     20705       179  CHL1      C7             22.5197875189       30.3032750311      -13.0555780575  MEMB      179             0.0000000000
     20706       179  CHL1      H7A            22.5968462412       29.2816553044      -12.6173956674  MEMB      179             0.0000000000
     20707       179  CHL1      H7B            23.4837420045       30.8295461463      -12.9018019499  MEMB      179             0.0000000000
     20708       179  CHL1      C8             21.4331190089       31.0995483572      -12.2689997976  MEMB      179             0.0000000000
     20709       179  CHL1      H8             20.5560130894       30.4939782615      -12.1235954623  MEMB      179             0.0000000000
     20710       179  CHL1      C14            21.8456849948       31.4801116083      -10.8832237171  MEMB      179             0.0000000000
     20711       179  CHL1      H14            22.4944598510       32.3795862215      -11.0198891037  MEMB      179             0.0000000000
     20712       179  CHL1      C15            22.7078689333       30.5092876908      -10.0730623542  MEMB      179             0.0000000000
     20713       179  CHL1      H15A           22.2844991079       29.4836364178      -10.0799151606  MEMB      179             0.0000000000
     20714       179  CHL1      H15B           23.7403014525       30.4818776554      -10.4775880591  MEMB      179             0.0000000000
     20715       179  CHL1      C16            22.6260827061       31.0982383013       -8.6574980575  MEMB      179             0.0000000000
     20716       179  CHL1      H16A           22.5228416226       30.2622774923       -7.9482128281  MEMB      179             0.0000000000
     20717       179  CHL1      H16B           23.5513786408       31.6391760163       -8.3774543323  MEMB      179             0.0000000000
     20718       179  CHL1      C17            21.4412591101       32.1262387563       -8.6734199934  MEMB      179             0.0000000000
     20719       179  CHL1      H17            21.9288501355       33.1123621257       -8.8848586263  MEMB      179             0.0000000000
     20720       179  CHL1      C13            20.6891721517       31.9520145546       -9.9992737017  MEMB      179             0.0000000000
     20721       179  CHL1      C18            19.5560013005       30.9087855754       -9.8043389004  MEMB      179             0.0000000000
     20722       179  CHL1      H18A           19.9655524908       29.9874283219       -9.3559725872  MEMB      179             0.0000000000
     20723       179  CHL1      H18B           18.8192570896       31.3168764703       -9.0901004019  MEMB      179             0.0000000000
     20724       179  CHL1      H18C           18.9838752031       30.6452396383      -10.7164188374  MEMB      179             0.0000000000
     20725       179  CHL1      C12            20.1699854297       33.2638827246      -10.6176102670  MEMB      179             0.0000000000
     20726       179  CHL1      H12A           19.3224850540       33.6559008979      -10.0192224131  MEMB      179             0.0000000000
     20727       179  CHL1      H12B           20.9692319471       34.0421634609      -10.6124912879  MEMB      179             0.0000000000
     20728       179  CHL1      C11            19.7595418469       33.0142776367      -12.0824513527  MEMB      179             0.0000000000
     20729       179  CHL1      H11A           18.8815693191       32.3382969865      -12.0386685593  MEMB      179             0.0000000000
     20730       179  CHL1      H11B           19.4242199963       33.9843599639      -12.4951878594  MEMB      179             0.0000000000
     20731       179  CHL1      C9             20.8888490388       32.3369864320      -12.9482572529  MEMB      179             0.0000000000
     20732       179  CHL1      H9             21.7413379944       33.0514176271      -12.9318042900  MEMB      179             0.0000000000
     20733       179  CHL1      C10            20.5579724622       32.0502678545      -14.4346982396  MEMB      179             0.0000000000
     20734       179  CHL1      C19            19.0714707035       31.6549562206      -14.5740001886  MEMB      179             0.0000000000
     20735       179  CHL1      H19A           18.3447327935       32.4253651298      -14.2409226434  MEMB      179             0.0000000000
     20736       179  CHL1      H19B           18.8673841151       31.4961402754      -15.6500018236  MEMB      179             0.0000000000
     20737       179  CHL1      H19C           18.8925492321       30.7163857844      -14.0095076405  MEMB      179             0.0000000000
     20738       179  CHL1      C1             20.8213491246       33.3292922530      -15.1950833755  MEMB      179             0.0000000000
     20739       179  CHL1      H1A            19.9793622975       33.9543102947      -14.8371054342  MEMB      179             0.0000000000
     20740       179  CHL1      H1B            21.7954964385       33.7630788684      -14.8540403031  MEMB      179             0.0000000000
     20741       179  CHL1      C2             20.8267416569       33.2739749207      -16.7279647589  MEMB      179             0.0000000000
     20742       179  CHL1      H2A            21.3387099065       34.1176722493      -17.1259852282  MEMB      179             0.0000000000
     20743       179  CHL1      H2B            19.8061532206       33.2358501170      -17.1487373477  MEMB      179             0.0000000000
     20744       179  CHL1      C20            20.6531851056       32.2959616482       -7.3478819235  MEMB      179             0.0000000000
     20745       179  CHL1      H20            19.7612772829       32.9385084206       -7.5310793629  MEMB      179             0.0000000000
     20746       179  CHL1      C21            21.6065684069       33.0854917784       -6.4240840684  MEMB      179             0.0000000000
     20747       179  CHL1      H21A           22.0729251762       33.9061682894       -7.0034178248  MEMB      179             0.0000000000
     20748       179  CHL1      H21B           22.3951610649       32.4128658075       -6.0218790802  MEMB      179             0.0000000000
     20749       179  CHL1      H21C           21.0731483960       33.5598464638       -5.5758175829  MEMB      179             0.0000000000
     20750       179  CHL1      C22            20.2146778338       30.9701926167       -6.6507405283  MEMB      179             0.0000000000
     20751       179  CHL1      H22A           19.5138462410       30.3732576621       -7.2631470665  MEMB      179             0.0000000000
     20752       179  CHL1      H22B           21.1404592422       30.3714737234       -6.5392999941  MEMB      179             0.0000000000
     20753       179  CHL1      C23            19.6176253199       31.0131843288       -5.2298894367  MEMB      179             0.0000000000
     20754       179  CHL1      H23A           19.8240888081       30.0025543108       -4.8022179111  MEMB      179             0.0000000000
     20755       179  CHL1      H23B           20.1050762022       31.7575272300       -4.5620724935  MEMB      179             0.0000000000
     20756       179  CHL1      C24            18.1010336311       31.1769176934       -5.1338240904  MEMB      179             0.0000000000
     20757       179  CHL1      H24A           17.7306014348       31.8882363920       -5.8995289573  MEMB      179             0.0000000000
     20758       179  CHL1      H24B           17.5860100851       30.2058760114       -5.3228386737  MEMB      179             0.0000000000
     20759       179  CHL1      C25            17.7273259020       31.7151152358       -3.7402545349  MEMB      179             0.0000000000
     20760       179  CHL1      H25            18.2570458019       32.6745118206       -3.5688730204  MEMB      179             0.0000000000
     20761       179  CHL1      C26            16.2642200287       31.9710072855       -3.6906348619  MEMB      179             0.0000000000
     20762       179  CHL1      H26A           15.8382026064       32.5059807993       -2.8243920977  MEMB      179             0.0000000000
     20763       179  CHL1      H26B           15.9922863795       32.4587354680       -4.6416665008  MEMB      179             0.0000000000
     20764       179  CHL1      H26C           15.8895252705       30.9496441894       -3.6317761171  MEMB      179             0.0000000000
     20765       179  CHL1      C27            18.0038322918       30.6999249953       -2.6423545184  MEMB      179             0.0000000000
     20766       179  CHL1      H27A           17.8143923426       31.1640873884       -1.6679853527  MEMB      179             0.0000000000
     20767       179  CHL1      H27B           17.3200957835       29.8262159456       -2.7310044496  MEMB      179             0.0000000000
     20768       179  CHL1      H27C           19.0517980140       30.3698159978       -2.6808125311  MEMB      179             0.0000000000
     20769       180  SAPE      N             -33.5469772969       21.1189148890      -22.7830946984  MEMB      180             0.0000000000
     20770       180  SAPE      HN1           -34.2863015893       21.3168876763      -23.4830812763  MEMB      180             0.0000000000
     20771       180  SAPE      HN2           -32.5909850146       21.2642476349      -23.1644243715  MEMB      180             0.0000000000
     20772       180  SAPE      HN3           -33.6027769422       20.1420858350      -22.3998002951  MEMB      180             0.0000000000
     20773       180  SAPE      C12           -33.7651709945       22.0493209905      -21.6309432839  MEMB      180             0.0000000000
     20774       180  SAPE      H12A          -34.7095571372       21.7087336803      -21.1470797051  MEMB      180             0.0000000000
     20775       180  SAPE      H12B          -33.8715624953       23.0722522748      -22.0350080806  MEMB      180             0.0000000000
     20776       180  SAPE      C11           -32.5950988046       22.0097139478      -20.6539632319  MEMB      180             0.0000000000
     20777       180  SAPE      H11A          -32.7981720200       22.7418042137      -19.8285364537  MEMB      180             0.0000000000
     20778       180  SAPE      H11B          -31.6435957884       22.3422068227      -21.1263253244  MEMB      180             0.0000000000
     20779       180  SAPE      P             -33.2707852904       20.1132542506      -18.9796286937  MEMB      180             0.0000000000
     20780       180  SAPE      O13           -34.5190005823       19.6268837942      -19.6115114105  MEMB      180             0.0000000000
     20781       180  SAPE      O14           -32.4396872823       19.2496190263      -18.1339315782  MEMB      180             0.0000000000
     20782       180  SAPE      O12           -32.4213035982       20.6751452632      -20.2013539342  MEMB      180             0.0000000000
     20783       180  SAPE      O11           -33.6000781211       21.4378193376      -18.2247148691  MEMB      180             0.0000000000
     20784       180  SAPE      C1            -34.5313231328       21.4822167992      -17.1614397500  MEMB      180             0.0000000000
     20785       180  SAPE      HA            -35.4434880568       22.0105509244      -17.5233498730  MEMB      180             0.0000000000
     20786       180  SAPE      HB            -34.8793615648       20.4759200387      -16.8157334040  MEMB      180             0.0000000000
     20787       180  SAPE      C2            -33.8487115815       22.2462218924      -15.9948552607  MEMB      180             0.0000000000
     20788       180  SAPE      HS            -33.1325669705       22.9808532055      -16.4165115304  MEMB      180             0.0000000000
     20789       180  SAPE      O21           -33.2299686775       21.3219713335      -15.1271797833  MEMB      180             0.0000000000
     20790       180  SAPE      C21           -32.5972758650       21.8228513120      -14.1239048892  MEMB      180             0.0000000000
     20791       180  SAPE      O22           -32.1236602533       22.9474586197      -14.0190429112  MEMB      180             0.0000000000
     20792       180  SAPE      C22           -32.6379577550       20.6801388548      -13.1191963872  MEMB      180             0.0000000000
     20793       180  SAPE      H2R           -33.5293466010       20.7829741432      -12.4927561295  MEMB      180             0.0000000000
     20794       180  SAPE      H2S           -32.6354597003       19.7187152312      -13.6725244139  MEMB      180             0.0000000000
     20795       180  SAPE      C3            -34.8511358225       22.9629338345      -15.1933355260  MEMB      180             0.0000000000
     20796       180  SAPE      HX            -35.4779320861       23.3081469989      -15.9709030756  MEMB      180             0.0000000000
     20797       180  SAPE      HY            -34.5964432940       23.8577727206      -14.5561316558  MEMB      180             0.0000000000
     20798       180  SAPE      O31           -35.6915987984       21.9534467812      -14.6968877144  MEMB      180             0.0000000000
     20799       180  SAPE      C31           -35.8584468134       21.8552486651      -13.4598189267  MEMB      180             0.0000000000
     20800       180  SAPE      O32           -35.4279933027       22.5879903747      -12.5792655073  MEMB      180             0.0000000000
     20801       180  SAPE      C32           -36.5531708732       20.5162881609      -13.3470273184  MEMB      180             0.0000000000
     20802       180  SAPE      H2X           -35.8228061137       19.7310027305      -13.6043373873  MEMB      180             0.0000000000
     20803       180  SAPE      H2Y           -37.3881749938       20.4791356433      -14.0877608655  MEMB      180             0.0000000000
     20804       180  SAPE      C23           -31.4470238399       20.6710724345      -12.2303517910  MEMB      180             0.0000000000
     20805       180  SAPE      H3R           -30.7274567310       20.8299304414      -12.9956296790  MEMB      180             0.0000000000
     20806       180  SAPE      H3S           -31.1259508173       19.6583157114      -11.9106212353  MEMB      180             0.0000000000
     20807       180  SAPE      C24           -31.6656185146       21.6731537676      -11.1338526786  MEMB      180             0.0000000000
     20808       180  SAPE      H4R           -32.6065356666       21.6720258250      -10.5785189068  MEMB      180             0.0000000000
     20809       180  SAPE      H4S           -31.4470992745       22.7465535426      -11.3676502537  MEMB      180             0.0000000000
     20810       180  SAPE      C25           -31.1281646743       21.0307673437       -9.9894557676  MEMB      180             0.0000000000
     20811       180  SAPE      H5R           -30.6333150704       20.0312186476      -10.1201398494  MEMB      180             0.0000000000
     20812       180  SAPE      C26           -30.4317887783       21.8086836935       -9.3276721276  MEMB      180             0.0000000000
     20813       180  SAPE      H6R           -29.6899218140       20.9934211922       -9.0803965369  MEMB      180             0.0000000000
     20814       180  SAPE      C27           -30.0255116602       23.4088792061       -9.5965070781  MEMB      180             0.0000000000
     20815       180  SAPE      H7R           -29.5127287777       23.7266395655      -10.5204433925  MEMB      180             0.0000000000
     20816       180  SAPE      H7S           -29.1406007317       23.8659112660       -9.0790577149  MEMB      180             0.0000000000
     20817       180  SAPE      C28           -30.6673385613       24.6146639654       -9.4943352840  MEMB      180             0.0000000000
     20818       180  SAPE      H8R           -30.3993855703       25.4936805981      -10.0964991489  MEMB      180             0.0000000000
     20819       180  SAPE      C29           -31.3062045786       24.5666608713       -8.4230571838  MEMB      180             0.0000000000
     20820       180  SAPE      H9R           -31.6828888158       25.5138297900       -8.2004731755  MEMB      180             0.0000000000
     20821       180  SAPE      C210          -31.4380509326       23.4548592009       -7.4258610628  MEMB      180             0.0000000000
     20822       180  SAPE      H10R          -31.7800896714       22.4561602060       -7.7124235242  MEMB      180             0.0000000000
     20823       180  SAPE      H10S          -31.8774062260       23.7385136049       -6.5509093649  MEMB      180             0.0000000000
     20824       180  SAPE      C211          -30.4069639552       23.3168827865       -6.5546943228  MEMB      180             0.0000000000
     20825       180  SAPE      H11R          -29.7556374287       24.1916093614       -6.6506823491  MEMB      180             0.0000000000
     20826       180  SAPE      C212          -30.2511099428       22.2205355508       -5.7917408018  MEMB      180             0.0000000000
     20827       180  SAPE      H12R          -29.3832216244       22.0326250298       -5.3452009552  MEMB      180             0.0000000000
     20828       180  SAPE      C213          -30.5831919175       20.8680496218       -5.5351210288  MEMB      180             0.0000000000
     20829       180  SAPE      H13R          -29.7854962027       20.4247939557       -6.1701920963  MEMB      180             0.0000000000
     20830       180  SAPE      H13S          -31.5906996839       21.0032318444       -5.8740095411  MEMB      180             0.0000000000
     20831       180  SAPE      C214          -30.4133096032       20.3540884688       -4.0743095294  MEMB      180             0.0000000000
     20832       180  SAPE      H14R          -29.5336946023       20.5242296905       -3.4445805741  MEMB      180             0.0000000000
     20833       180  SAPE      C215          -31.2544513328       19.5261540238       -3.5171004357  MEMB      180             0.0000000000
     20834       180  SAPE      H15R          -30.9881913356       19.0555938537       -2.5633898550  MEMB      180             0.0000000000
     20835       180  SAPE      C216          -32.4786479553       19.0109252996       -4.1834280533  MEMB      180             0.0000000000
     20836       180  SAPE      H16R          -32.2495349280       18.2032831010       -4.9158776534  MEMB      180             0.0000000000
     20837       180  SAPE      H16S          -33.0230548108       19.8136377687       -4.7243638340  MEMB      180             0.0000000000
     20838       180  SAPE      C217          -33.2780027149       18.4182820468       -3.0240105222  MEMB      180             0.0000000000
     20839       180  SAPE      H17R          -33.3573967120       19.1319599737       -2.1769893696  MEMB      180             0.0000000000
     20840       180  SAPE      H17S          -32.7391707875       17.5141918998       -2.6588557664  MEMB      180             0.0000000000
     20841       180  SAPE      C218          -34.6793161598       17.9953433739       -3.4345591026  MEMB      180             0.0000000000
     20842       180  SAPE      H18R          -35.1261719371       17.3225847783       -2.6749634812  MEMB      180             0.0000000000
     20843       180  SAPE      H18S          -34.5413813080       17.4469829966       -4.3903408955  MEMB      180             0.0000000000
     20844       180  SAPE      C219          -35.6142331401       19.1874000601       -3.6387039611  MEMB      180             0.0000000000
     20845       180  SAPE      H19R          -36.4109085037       18.9482433712       -4.3397747050  MEMB      180             0.0000000000
     20846       180  SAPE      H19S          -35.0989033532       19.9365640125       -4.2518090725  MEMB      180             0.0000000000
     20847       180  SAPE      C220          -36.2055356535       19.7884812671       -2.3550949566  MEMB      180             0.0000000000
     20848       180  SAPE      H20R          -35.3947641341       20.1636723331       -1.7201690072  MEMB      180             0.0000000000
     20849       180  SAPE      H20S          -36.7647447628       19.0650456872       -1.7299334177  MEMB      180             0.0000000000
     20850       180  SAPE      H20T          -36.8744146434       20.6425263197       -2.5864837087  MEMB      180             0.0000000000
     20851       180  SAPE      C33           -37.0491190151       20.2922826320      -11.9426511558  MEMB      180             0.0000000000
     20852       180  SAPE      H3X           -37.8865156729       19.5726900110      -11.9674697359  MEMB      180             0.0000000000
     20853       180  SAPE      H3Y           -37.4294627902       21.2332472939      -11.5928490436  MEMB      180             0.0000000000
     20854       180  SAPE      C34           -35.9882166603       19.8535423007      -10.9569208751  MEMB      180             0.0000000000
     20855       180  SAPE      H4X           -35.1702669661       20.6108600463      -10.8875875413  MEMB      180             0.0000000000
     20856       180  SAPE      H4Y           -35.5843319980       18.9228378109      -11.3950956146  MEMB      180             0.0000000000
     20857       180  SAPE      C35           -36.5208821557       19.6266179204       -9.5407277306  MEMB      180             0.0000000000
     20858       180  SAPE      H5X           -35.6773434774       19.2409757135       -8.9340945729  MEMB      180             0.0000000000
     20859       180  SAPE      H5Y           -37.3457867606       18.8853715313       -9.4739858927  MEMB      180             0.0000000000
     20860       180  SAPE      C36           -37.0083929445       20.8910955213       -8.8766591625  MEMB      180             0.0000000000
     20861       180  SAPE      H6X           -37.9145326204       21.2475941672       -9.3907487066  MEMB      180             0.0000000000
     20862       180  SAPE      H6Y           -36.2733898877       21.7226014208       -8.9893842698  MEMB      180             0.0000000000
     20863       180  SAPE      C37           -37.3188010129       20.6414535851       -7.4027765952  MEMB      180             0.0000000000
     20864       180  SAPE      H7X           -36.4560901013       20.3077519803       -6.8199158382  MEMB      180             0.0000000000
     20865       180  SAPE      H7Y           -38.2684188945       20.0870862831       -7.1794522365  MEMB      180             0.0000000000
     20866       180  SAPE      C38           -37.6629004656       21.9167419237       -6.8126612155  MEMB      180             0.0000000000
     20867       180  SAPE      H8X           -38.3584172251       21.8025527266       -5.9446692454  MEMB      180             0.0000000000
     20868       180  SAPE      H8Y           -38.1996289742       22.2826475517       -7.6727480169  MEMB      180             0.0000000000
     20869       180  SAPE      C39           -36.5942509167       22.9422625890       -6.5576748340  MEMB      180             0.0000000000
     20870       180  SAPE      H9X           -36.8734051792       23.9861015426       -6.2418758286  MEMB      180             0.0000000000
     20871       180  SAPE      H9Y           -36.0941435495       23.3437510756       -7.4468423909  MEMB      180             0.0000000000
     20872       180  SAPE      C310          -36.0019438889       22.1937376069       -5.4376129728  MEMB      180             0.0000000000
     20873       180  SAPE      H10X          -35.2828495209       21.4817017759       -5.8656695292  MEMB      180             0.0000000000
     20874       180  SAPE      H10Y          -36.6022933797       22.1030296847       -4.4860249169  MEMB      180             0.0000000000
     20875       180  SAPE      C311          -35.0879149512       22.9686144964       -4.9129680321  MEMB      180             0.0000000000
     20876       180  SAPE      H11X          -35.8784932205       23.8102835933       -4.7902607397  MEMB      180             0.0000000000
     20877       180  SAPE      H11Y          -34.4426971399       23.2104009395       -5.7625977311  MEMB      180             0.0000000000
     20878       180  SAPE      C312          -34.1144250042       22.6485034861       -3.7344946501  MEMB      180             0.0000000000
     20879       180  SAPE      H12X          -33.1132492502       23.1915424710       -3.5318291703  MEMB      180             0.0000000000
     20880       180  SAPE      H12Y          -33.6388070798       21.7842341166       -4.1077937763  MEMB      180             0.0000000000
     20881       180  SAPE      C313          -34.8206868388       22.8803541685       -2.4506306879  MEMB      180             0.0000000000
     20882       180  SAPE      H13X          -35.8334160431       22.5559513281       -2.4935608348  MEMB      180             0.0000000000
     20883       180  SAPE      H13Y          -35.1749959295       23.8797621686       -2.1085734923  MEMB      180             0.0000000000
     20884       180  SAPE      C314          -33.8614445573       22.2558053484       -1.5879182564  MEMB      180             0.0000000000
     20885       180  SAPE      H14X          -32.7865248669       22.5374313615       -1.6253499414  MEMB      180             0.0000000000
     20886       180  SAPE      H14Y          -33.7604018429       21.2186377894       -1.9408900361  MEMB      180             0.0000000000
     20887       180  SAPE      C315          -34.3647354886       22.5518452315       -0.2530618756  MEMB      180             0.0000000000
     20888       180  SAPE      H15X          -35.4031741302       22.3719362235       -0.0046748763  MEMB      180             0.0000000000
     20889       180  SAPE      H15Y          -33.9727441139       23.5150314076        0.1775377329  MEMB      180             0.0000000000
     20890       180  SAPE      C316          -33.7177406983       21.5416011947        0.4355629393  MEMB      180             0.0000000000
     20891       180  SAPE      H16X          -33.5759484679       22.1328210332        1.3557301349  MEMB      180             0.0000000000
     20892       180  SAPE      H16Y          -32.7075844937       21.4936926124       -0.1089969244  MEMB      180             0.0000000000
     20893       180  SAPE      C317          -34.3247323852       20.0869487143        0.6795502388  MEMB      180             0.0000000000
     20894       180  SAPE      H17X          -34.2162621838       19.6317182337       -0.3119749453  MEMB      180             0.0000000000
     20895       180  SAPE      H17Y          -35.3504358874       20.3377848571        1.0004547485  MEMB      180             0.0000000000
     20896       180  SAPE      C318          -33.8818875041       18.9197102788        1.6834460299  MEMB      180             0.0000000000
     20897       180  SAPE      H18X          -34.4699606482       18.0165137195        1.7172880713  MEMB      180             0.0000000000
     20898       180  SAPE      H18Y          -34.0107234771       19.2579930707        2.7149206181  MEMB      180             0.0000000000
     20899       180  SAPE      H18Z          -32.8438378232       18.5212515897        1.6714370057  MEMB      180             0.0000000000
     20900       181  SOPE      N              23.9536168296      -29.7049177526      -22.7516711452  MEMB      181             0.0000000000
     20901       181  SOPE      HN1            24.4367229192      -30.5239302424      -23.1676492475  MEMB      181             0.0000000000
     20902       181  SOPE      HN2            22.9232516016      -29.7978229734      -22.8506472734  MEMB      181             0.0000000000
     20903       181  SOPE      HN3            24.2815184936      -28.8456714836      -23.2475061170  MEMB      181             0.0000000000
     20904       181  SOPE      C12            24.2972154147      -29.6988121833      -21.2870740735  MEMB      181             0.0000000000
     20905       181  SOPE      H12A           23.7664913094      -30.5493263347      -20.8307020425  MEMB      181             0.0000000000
     20906       181  SOPE      H12B           23.9942576826      -28.7444028727      -20.8106308467  MEMB      181             0.0000000000
     20907       181  SOPE      C11            25.7811595598      -29.8944496826      -21.1030372193  MEMB      181             0.0000000000
     20908       181  SOPE      H11A           26.0980684713      -30.8024966297      -21.6578161598  MEMB      181             0.0000000000
     20909       181  SOPE      H11B           25.9969795460      -30.0933898242      -20.0219024435  MEMB      181             0.0000000000
     20910       181  SOPE      P              26.9971987409      -27.6566971902      -20.5658546333  MEMB      181             0.0000000000
     20911       181  SOPE      O13            25.9834372930      -27.2989339073      -19.5594072316  MEMB      181             0.0000000000
     20912       181  SOPE      O14            27.8024786999      -26.6234660264      -21.2253416061  MEMB      181             0.0000000000
     20913       181  SOPE      O12            26.4229674388      -28.7260526960      -21.6085928439  MEMB      181             0.0000000000
     20914       181  SOPE      O11            27.9605878423      -28.4864232534      -19.8340228407  MEMB      181             0.0000000000
     20915       181  SOPE      C1             28.8769623024      -29.2682059544      -20.5420966245  MEMB      181             0.0000000000
     20916       181  SOPE      HA             29.5077980339      -28.8295552514      -21.3488642371  MEMB      181             0.0000000000
     20917       181  SOPE      HB             28.4421285428      -30.2234706295      -20.9701737957  MEMB      181             0.0000000000
     20918       181  SOPE      C2             29.8536261547      -29.4826885840      -19.5045049751  MEMB      181             0.0000000000
     20919       181  SOPE      HS             30.6167226540      -30.0463639334      -19.2800922690  MEMB      181             0.0000000000
     20920       181  SOPE      O21            28.9337212315      -30.3471611078      -18.8243685037  MEMB      181             0.0000000000
     20921       181  SOPE      C21            28.5200272998      -31.7137405733      -18.8504384767  MEMB      181             0.0000000000
     20922       181  SOPE      O22            28.6834317931      -32.3989656997      -19.8140715674  MEMB      181             0.0000000000
     20923       181  SOPE      C22            27.8720336703      -32.3388570649      -17.4925131960  MEMB      181             0.0000000000
     20924       181  SOPE      H2R            28.5951807523      -33.1007686925      -17.0533699076  MEMB      181             0.0000000000
     20925       181  SOPE      H2S            27.3250396510      -33.2732908474      -17.5596683582  MEMB      181             0.0000000000
     20926       181  SOPE      C3             30.7321855146      -28.5504631613      -18.7203366166  MEMB      181             0.0000000000
     20927       181  SOPE      HX             31.2648929411      -28.2281826085      -19.6156432016  MEMB      181             0.0000000000
     20928       181  SOPE      HY             31.7231688203      -28.8056173289      -18.2306269379  MEMB      181             0.0000000000
     20929       181  SOPE      O31            30.0363200406      -27.5840531163      -18.2005606475  MEMB      181             0.0000000000
     20930       181  SOPE      C31            29.8630882440      -28.0252308780      -17.0015914976  MEMB      181             0.0000000000
     20931       181  SOPE      O32            30.6384043868      -28.6611593066      -16.3166219078  MEMB      181             0.0000000000
     20932       181  SOPE      C32            28.7385823105      -27.2637353456      -16.5829842687  MEMB      181             0.0000000000
     20933       181  SOPE      H2X            27.8033505910      -27.6967590167      -16.9688471445  MEMB      181             0.0000000000
     20934       181  SOPE      H2Y            28.8838319722      -26.3139381376      -17.1156725831  MEMB      181             0.0000000000
     20935       181  SOPE      C23            27.1789503112      -31.1500125301      -16.5424533869  MEMB      181             0.0000000000
     20936       181  SOPE      H3R            26.3188128262      -30.9729386963      -17.1510555744  MEMB      181             0.0000000000
     20937       181  SOPE      H3S            27.6767447106      -30.1866906797      -16.5967537357  MEMB      181             0.0000000000
     20938       181  SOPE      C24            26.8011543320      -31.0748390092      -14.9573730781  MEMB      181             0.0000000000
     20939       181  SOPE      H4R            25.9964746056      -31.7400350290      -14.7397764459  MEMB      181             0.0000000000
     20940       181  SOPE      H4S            27.3930188163      -31.4226433680      -14.1057894752  MEMB      181             0.0000000000
     20941       181  SOPE      C25            26.2163349858      -30.0624989134      -14.2033207900  MEMB      181             0.0000000000
     20942       181  SOPE      H5R            27.1114875253      -29.4106581488      -14.2852872412  MEMB      181             0.0000000000
     20943       181  SOPE      H5S            25.3405930353      -29.9298738407      -14.8667012568  MEMB      181             0.0000000000
     20944       181  SOPE      C26            25.9334470720      -30.7844331952      -12.8510973354  MEMB      181             0.0000000000
     20945       181  SOPE      H6R            25.1953320898      -31.6245979783      -12.9398266312  MEMB      181             0.0000000000
     20946       181  SOPE      H6S            26.8291442032      -31.2695499158      -12.3536372793  MEMB      181             0.0000000000
     20947       181  SOPE      C27            25.5690689424      -29.6194376397      -12.0839759013  MEMB      181             0.0000000000
     20948       181  SOPE      H7R            26.4904532626      -28.9962049037      -12.1759374994  MEMB      181             0.0000000000
     20949       181  SOPE      H7S            24.6890840475      -29.1543084947      -12.5614455279  MEMB      181             0.0000000000
     20950       181  SOPE      C28            25.3054169373      -29.9782623819      -10.7192501790  MEMB      181             0.0000000000
     20951       181  SOPE      H8R            24.7243105119      -29.3121722588      -10.0751057255  MEMB      181             0.0000000000
     20952       181  SOPE      H8S            24.5620767007      -30.7843133656      -10.8869036885  MEMB      181             0.0000000000
     20953       181  SOPE      C29            26.6729638053      -30.2816962783      -10.1550635463  MEMB      181             0.0000000000
     20954       181  SOPE      H91            27.5995094932      -29.8308916483      -10.4586488832  MEMB      181             0.0000000000
     20955       181  SOPE      C210           26.7364605224      -30.9762558180       -9.1110347726  MEMB      181             0.0000000000
     20956       181  SOPE      H101           27.5860546963      -31.4067297348       -8.5993812982  MEMB      181             0.0000000000
     20957       181  SOPE      C211           25.6190955697      -31.4322795929       -8.5467971799  MEMB      181             0.0000000000
     20958       181  SOPE      H11R           26.2576512940      -32.3375048669       -8.6220934076  MEMB      181             0.0000000000
     20959       181  SOPE      H11S           24.9056090086      -31.6521696866       -9.3224326635  MEMB      181             0.0000000000
     20960       181  SOPE      C212           24.9437837681      -31.0082511778       -7.2527982572  MEMB      181             0.0000000000
     20961       181  SOPE      H12R           24.0269498755      -31.3350659089       -6.7477906334  MEMB      181             0.0000000000
     20962       181  SOPE      H12S           24.4798733515      -30.0914741153       -7.5707170300  MEMB      181             0.0000000000
     20963       181  SOPE      C213           25.7119815351      -31.2138382944       -5.9965434744  MEMB      181             0.0000000000
     20964       181  SOPE      H13R           26.6084958656      -30.6774926290       -6.0082446337  MEMB      181             0.0000000000
     20965       181  SOPE      H13S           26.1895826581      -32.1244172309       -6.0562573036  MEMB      181             0.0000000000
     20966       181  SOPE      C214           24.9016186732      -31.1091066820       -4.7160813128  MEMB      181             0.0000000000
     20967       181  SOPE      H14R           24.0021015666      -31.7329709568       -4.7341736499  MEMB      181             0.0000000000
     20968       181  SOPE      H14S           24.4885318172      -30.0952478724       -4.7808394054  MEMB      181             0.0000000000
     20969       181  SOPE      C215           25.7359189294      -31.3410205342       -3.4562922731  MEMB      181             0.0000000000
     20970       181  SOPE      H15R           26.4743831042      -30.5407938452       -3.4272853772  MEMB      181             0.0000000000
     20971       181  SOPE      H15S           26.2720914196      -32.3166099292       -3.4268097048  MEMB      181             0.0000000000
     20972       181  SOPE      C216           24.9692973982      -31.3079973769       -2.1543606684  MEMB      181             0.0000000000
     20973       181  SOPE      H16R           25.5394461766      -31.6116725055       -1.2624247436  MEMB      181             0.0000000000
     20974       181  SOPE      H16S           24.4927340155      -32.2097386641       -2.1676755414  MEMB      181             0.0000000000
     20975       181  SOPE      C217           23.9105820307      -30.2430211075       -1.9756091899  MEMB      181             0.0000000000
     20976       181  SOPE      H17R           23.1835560625      -30.5893540571       -1.2036233417  MEMB      181             0.0000000000
     20977       181  SOPE      H17S           23.3001006682      -29.9978209714       -2.8767077295  MEMB      181             0.0000000000
     20978       181  SOPE      C218           24.7099383503      -29.0980304367       -1.4355029291  MEMB      181             0.0000000000
     20979       181  SOPE      H18R           25.1443706479      -28.5060269071       -2.2719272598  MEMB      181             0.0000000000
     20980       181  SOPE      H18S           25.5234944989      -29.5651657681       -0.8290382331  MEMB      181             0.0000000000
     20981       181  SOPE      H18T           24.1203645900      -28.4691991993       -0.7532713308  MEMB      181             0.0000000000
     20982       181  SOPE      C33            28.7402807380      -27.2859108939      -15.0787028168  MEMB      181             0.0000000000
     20983       181  SOPE      H3X            29.2478016895      -28.1437869543      -14.6091624920  MEMB      181             0.0000000000
     20984       181  SOPE      H3Y            27.6844587367      -27.3516798056      -14.7850099889  MEMB      181             0.0000000000
     20985       181  SOPE      C34            29.2777775812      -26.0560160723      -14.4435001568  MEMB      181             0.0000000000
     20986       181  SOPE      H4X            28.9171459398      -25.1154244170      -14.7753765256  MEMB      181             0.0000000000
     20987       181  SOPE      H4Y            30.0067619636      -25.6539783884      -14.9730154847  MEMB      181             0.0000000000
     20988       181  SOPE      C35            28.9910175530      -25.8430757752      -13.0343674875  MEMB      181             0.0000000000
     20989       181  SOPE      H5X            27.9586719958      -25.9379963991      -13.0642110343  MEMB      181             0.0000000000
     20990       181  SOPE      H5Y            29.0166059003      -24.8207800309      -12.5949220181  MEMB      181             0.0000000000
     20991       181  SOPE      C36            29.3445797458      -27.0428751244      -12.2658246660  MEMB      181             0.0000000000
     20992       181  SOPE      H6X            30.3236795727      -27.1659909722      -12.6674905518  MEMB      181             0.0000000000
     20993       181  SOPE      H6Y            28.8812888467      -27.9861946324      -12.4820010912  MEMB      181             0.0000000000
     20994       181  SOPE      C37            29.6708248635      -26.8740046741      -10.8690619381  MEMB      181             0.0000000000
     20995       181  SOPE      H7X            30.2826794513      -25.9984490474      -11.0433664405  MEMB      181             0.0000000000
     20996       181  SOPE      H7Y            30.0507365598      -27.7319057031      -10.3060018055  MEMB      181             0.0000000000
     20997       181  SOPE      C38            28.8609255965      -26.1359586793       -9.9532567295  MEMB      181             0.0000000000
     20998       181  SOPE      H8X            28.1786562995      -26.9036956065      -10.3432110234  MEMB      181             0.0000000000
     20999       181  SOPE      H8Y            28.7799046740      -25.1030038153      -10.3629460567  MEMB      181             0.0000000000
     21000       181  SOPE      C39            28.6800327602      -26.3345759752       -8.4930050653  MEMB      181             0.0000000000
     21001       181  SOPE      H9X            29.4855811560      -25.6981436377       -8.1433507750  MEMB      181             0.0000000000
     21002       181  SOPE      H9Y            28.5706843840      -27.3447268024       -8.1634890635  MEMB      181             0.0000000000
     21003       181  SOPE      C310           27.5138848897      -25.8712271242       -7.5783772373  MEMB      181             0.0000000000
     21004       181  SOPE      H10X           28.1443905282      -24.8803498804       -7.5184377829  MEMB      181             0.0000000000
     21005       181  SOPE      H10Y           28.0443179853      -25.6625904752       -6.6394764420  MEMB      181             0.0000000000
     21006       181  SOPE      C311           25.6066064336      -25.6735066115       -7.7520571327  MEMB      181             0.0000000000
     21007       181  SOPE      H11X           25.0091314157      -24.9204136602       -8.5342244804  MEMB      181             0.0000000000
     21008       181  SOPE      H11Y           24.9828858556      -24.7018640139       -7.8377757545  MEMB      181             0.0000000000
     21009       181  SOPE      C312           25.0298931341      -26.8376521033       -7.5787257800  MEMB      181             0.0000000000
     21010       181  SOPE      H12X           25.8251153944      -27.5259365789       -7.9504123618  MEMB      181             0.0000000000
     21011       181  SOPE      H12Y           24.1110945633      -26.9169622645       -8.1697387362  MEMB      181             0.0000000000
     21012       181  SOPE      C313           25.0581275603      -26.7882122157       -6.0951922698  MEMB      181             0.0000000000
     21013       181  SOPE      H13X           26.1108110342      -26.8819347406       -5.7449112456  MEMB      181             0.0000000000
     21014       181  SOPE      H13Y           24.6148669775      -27.7532693759       -5.8706462590  MEMB      181             0.0000000000
     21015       181  SOPE      C314           24.3609807567      -25.5998634379       -5.3969336781  MEMB      181             0.0000000000
     21016       181  SOPE      H14X           23.3725981448      -25.5569815384       -5.7709902039  MEMB      181             0.0000000000
     21017       181  SOPE      H14Y           24.4980668104      -24.5252570584       -5.5245861695  MEMB      181             0.0000000000
     21018       181  SOPE      C315           24.5932702547      -25.6786420870       -3.9111641430  MEMB      181             0.0000000000
     21019       181  SOPE      H15X           25.6818154862      -25.8738741543       -3.7704314942  MEMB      181             0.0000000000
     21020       181  SOPE      H15Y           24.0644563225      -26.5854125415       -3.5955935926  MEMB      181             0.0000000000
     21021       181  SOPE      C316           24.1258610022      -24.4073795152       -3.1687413566  MEMB      181             0.0000000000
     21022       181  SOPE      H16X           23.1962136048      -24.0194711171       -3.6272751512  MEMB      181             0.0000000000
     21023       181  SOPE      H16Y           24.7877768053      -23.5205715778       -3.2276785942  MEMB      181             0.0000000000
     21024       181  SOPE      C317           24.0167985102      -24.6281883684       -1.6756079347  MEMB      181             0.0000000000
     21025       181  SOPE      H17X           23.9173032259      -23.6292482880       -1.1958574967  MEMB      181             0.0000000000
     21026       181  SOPE      H17Y           24.9332016717      -25.1161555804       -1.2811475189  MEMB      181             0.0000000000
     21027       181  SOPE      C318           22.8090768910      -25.4221860159       -1.2804348134  MEMB      181             0.0000000000
     21028       181  SOPE      H18X           21.9233733212      -24.9695319706       -1.7785061293  MEMB      181             0.0000000000
     21029       181  SOPE      H18Y           22.6563171326      -25.3332948324       -0.1896043724  MEMB      181             0.0000000000
     21030       181  SOPE      H18Z           22.8796998393      -26.4965230165       -1.5754861766  MEMB      181             0.0000000000
     21031       182  SOPE      N             -33.6334785230      -22.7457488393      -20.9160733554  MEMB      182             0.0000000000
     21032       182  SOPE      HN1           -32.7898978292      -22.7548163006      -21.5295097006  MEMB      182             0.0000000000
     21033       182  SOPE      HN2           -33.4398939456      -22.1435274727      -20.0931591364  MEMB      182             0.0000000000
     21034       182  SOPE      HN3           -33.8618327176      -23.7046616816      -20.5660157292  MEMB      182             0.0000000000
     21035       182  SOPE      C12           -34.8042191041      -22.0622549862      -21.5764757974  MEMB      182             0.0000000000
     21036       182  SOPE      H12A          -35.6565709064      -22.1488504368      -20.8670301064  MEMB      182             0.0000000000
     21037       182  SOPE      H12B          -35.0201636891      -22.5899341693      -22.5270408363  MEMB      182             0.0000000000
     21038       182  SOPE      C11           -34.6320853125      -20.5468334329      -21.8108027466  MEMB      182             0.0000000000
     21039       182  SOPE      H11A          -35.6505667634      -20.1855766693      -22.0940980044  MEMB      182             0.0000000000
     21040       182  SOPE      H11B          -33.9541279767      -20.3110190097      -22.6686992194  MEMB      182             0.0000000000
     21041       182  SOPE      P             -34.1240161161      -18.2652682758      -20.8221513378  MEMB      182             0.0000000000
     21042       182  SOPE      O13           -35.4870641437      -17.7095014085      -20.8183467452  MEMB      182             0.0000000000
     21043       182  SOPE      O14           -33.3095455185      -18.1132281510      -22.0445624413  MEMB      182             0.0000000000
     21044       182  SOPE      O12           -34.2290577318      -19.8710479973      -20.6143871389  MEMB      182             0.0000000000
     21045       182  SOPE      O11           -33.3120228589      -17.7587392186      -19.5649256168  MEMB      182             0.0000000000
     21046       182  SOPE      C1            -32.0125217191      -18.2674281594      -19.3079885814  MEMB      182             0.0000000000
     21047       182  SOPE      HA            -31.5217836284      -17.5782854409      -18.5853048174  MEMB      182             0.0000000000
     21048       182  SOPE      HB            -31.3852005514      -18.2843488867      -20.2282635105  MEMB      182             0.0000000000
     21049       182  SOPE      C2            -32.0268417774      -19.6895623857      -18.6929310328  MEMB      182             0.0000000000
     21050       182  SOPE      HS            -32.1344425787      -20.3888511600      -19.5483247091  MEMB      182             0.0000000000
     21051       182  SOPE      O21           -33.1438412929      -19.8311672355      -17.7969671256  MEMB      182             0.0000000000
     21052       182  SOPE      C21           -33.4147195360      -21.0394554258      -17.4102955383  MEMB      182             0.0000000000
     21053       182  SOPE      O22           -32.7126981997      -22.0282107533      -17.5553842710  MEMB      182             0.0000000000
     21054       182  SOPE      C22           -34.8437558964      -21.0753856982      -16.9396079745  MEMB      182             0.0000000000
     21055       182  SOPE      H2R           -35.4199040415      -21.7058336418      -17.6511776634  MEMB      182             0.0000000000
     21056       182  SOPE      H2S           -35.2974020989      -20.0685949361      -16.9837825282  MEMB      182             0.0000000000
     21057       182  SOPE      C3            -30.7127911973      -19.9336527102      -17.9733375196  MEMB      182             0.0000000000
     21058       182  SOPE      HX            -29.8249618139      -19.6515758565      -18.5372650534  MEMB      182             0.0000000000
     21059       182  SOPE      HY            -30.6223560521      -20.9978927462      -17.6414852240  MEMB      182             0.0000000000
     21060       182  SOPE      O31           -30.7473214530      -19.0276025058      -16.9064613218  MEMB      182             0.0000000000
     21061       182  SOPE      C31           -30.0532512985      -19.4658702217      -15.9685926363  MEMB      182             0.0000000000
     21062       182  SOPE      O32           -29.0770927222      -20.2072307821      -16.0600713771  MEMB      182             0.0000000000
     21063       182  SOPE      C32           -30.6283682788      -18.8220546110      -14.7112152065  MEMB      182             0.0000000000
     21064       182  SOPE      H2X           -30.6946986614      -17.7000540530      -14.9799287443  MEMB      182             0.0000000000
     21065       182  SOPE      H2Y           -29.8945641836      -19.1144250528      -13.9165640617  MEMB      182             0.0000000000
     21066       182  SOPE      C23           -34.8598754943      -21.6085994506      -15.5102244298  MEMB      182             0.0000000000
     21067       182  SOPE      H3R           -34.3907032584      -20.9330543184      -14.7765296746  MEMB      182             0.0000000000
     21068       182  SOPE      H3S           -34.2442111758      -22.5442271965      -15.4852775175  MEMB      182             0.0000000000
     21069       182  SOPE      C24           -36.2840449091      -21.7578400366      -14.9978784338  MEMB      182             0.0000000000
     21070       182  SOPE      H4R           -36.9567427427      -20.9068513532      -15.0844852436  MEMB      182             0.0000000000
     21071       182  SOPE      H4S           -36.7323811947      -22.6171937939      -15.5899330132  MEMB      182             0.0000000000
     21072       182  SOPE      C25           -36.3377053711      -21.9992128821      -13.4900072322  MEMB      182             0.0000000000
     21073       182  SOPE      H5R           -37.3572144999      -22.4202526286      -13.3410253234  MEMB      182             0.0000000000
     21074       182  SOPE      H5S           -35.4126588229      -22.5781361929      -13.2021805453  MEMB      182             0.0000000000
     21075       182  SOPE      C26           -36.0601737390      -21.1811328504      -12.2935585224  MEMB      182             0.0000000000
     21076       182  SOPE      H6R           -35.0248357003      -20.8008398305      -12.4438313571  MEMB      182             0.0000000000
     21077       182  SOPE      H6S           -36.8645417211      -20.4455222344      -12.3837664210  MEMB      182             0.0000000000
     21078       182  SOPE      C27           -36.2041922130      -21.9905455583      -10.9595910975  MEMB      182             0.0000000000
     21079       182  SOPE      H7R           -37.1380084228      -22.6114646341      -10.9526074397  MEMB      182             0.0000000000
     21080       182  SOPE      H7S           -35.3795493615      -22.7202424873      -10.7638405710  MEMB      182             0.0000000000
     21081       182  SOPE      C28           -36.3184978285      -21.0549833323       -9.7685614163  MEMB      182             0.0000000000
     21082       182  SOPE      H8R           -37.2435204394      -20.4607060686       -9.9220050749  MEMB      182             0.0000000000
     21083       182  SOPE      H8S           -36.4382489173      -21.6623465492       -8.8476229750  MEMB      182             0.0000000000
     21084       182  SOPE      C29           -35.1304669346      -20.1596902927       -9.6561305864  MEMB      182             0.0000000000
     21085       182  SOPE      H91           -34.8143629749      -19.6350118604      -10.5763039871  MEMB      182             0.0000000000
     21086       182  SOPE      C210          -34.4713558929      -19.9287857833       -8.5228129918  MEMB      182             0.0000000000
     21087       182  SOPE      H101          -33.6224753053      -19.2896871813       -8.6085546543  MEMB      182             0.0000000000
     21088       182  SOPE      C211          -34.6886643106      -20.4436440952       -7.1284648297  MEMB      182             0.0000000000
     21089       182  SOPE      H11R          -33.7387366169      -20.3454650135       -6.5577369132  MEMB      182             0.0000000000
     21090       182  SOPE      H11S          -34.9195337212      -21.5295041365       -7.1070288376  MEMB      182             0.0000000000
     21091       182  SOPE      C212          -35.7505950558      -19.6639725511       -6.3469765577  MEMB      182             0.0000000000
     21092       182  SOPE      H12R          -36.6854154614      -19.5165211164       -6.9357712045  MEMB      182             0.0000000000
     21093       182  SOPE      H12S          -35.3940583797      -18.6342737068       -6.1321498037  MEMB      182             0.0000000000
     21094       182  SOPE      C213          -36.0802703753      -20.4235939388       -5.0559760818  MEMB      182             0.0000000000
     21095       182  SOPE      H13R          -35.2119130879      -20.5194646285       -4.3736328804  MEMB      182             0.0000000000
     21096       182  SOPE      H13S          -36.4715771566      -21.4269457337       -5.3356403964  MEMB      182             0.0000000000
     21097       182  SOPE      C214          -37.1520725759      -19.7155218264       -4.2917415063  MEMB      182             0.0000000000
     21098       182  SOPE      H14R          -37.7315905355      -20.4063641592       -3.6314701285  MEMB      182             0.0000000000
     21099       182  SOPE      H14S          -37.8360180897      -19.4903683476       -5.0962688136  MEMB      182             0.0000000000
     21100       182  SOPE      C215          -36.5865325233      -18.4730926187       -3.5914780463  MEMB      182             0.0000000000
     21101       182  SOPE      H15R          -37.2972161821      -17.6123847276       -3.5036619020  MEMB      182             0.0000000000
     21102       182  SOPE      H15S          -35.8397965890      -17.9088331388       -4.1462161484  MEMB      182             0.0000000000
     21103       182  SOPE      C216          -36.0905061766      -18.8665031301       -2.2112114398  MEMB      182             0.0000000000
     21104       182  SOPE      H16R          -35.1649933436      -19.4719782583       -2.2840383557  MEMB      182             0.0000000000
     21105       182  SOPE      H16S          -36.8096543730      -19.4552202017       -1.5830725813  MEMB      182             0.0000000000
     21106       182  SOPE      C217          -35.7418903927      -17.5789543814       -1.5585444817  MEMB      182             0.0000000000
     21107       182  SOPE      H17R          -36.6227524864      -16.8910132025       -1.5194483212  MEMB      182             0.0000000000
     21108       182  SOPE      H17S          -34.9222352927      -17.0746387443       -2.0819782619  MEMB      182             0.0000000000
     21109       182  SOPE      C218          -35.2461519297      -17.7966080883       -0.2210877392  MEMB      182             0.0000000000
     21110       182  SOPE      H18R          -35.7690616875      -16.9894990276        0.3562509438  MEMB      182             0.0000000000
     21111       182  SOPE      H18S          -34.1704150274      -17.7500570400       -0.0468332659  MEMB      182             0.0000000000
     21112       182  SOPE      H18T          -35.3783405414      -18.8235429539        0.1635010329  MEMB      182             0.0000000000
     21113       182  SOPE      C33           -31.9646109258      -18.2394656130      -14.3177873984  MEMB      182             0.0000000000
     21114       182  SOPE      H3X           -32.3827775569      -19.1916137433      -14.6296682822  MEMB      182             0.0000000000
     21115       182  SOPE      H3Y           -32.4299737377      -17.4038706588      -14.9239311123  MEMB      182             0.0000000000
     21116       182  SOPE      C34           -31.8487078108      -17.7916836874      -12.8409246802  MEMB      182             0.0000000000
     21117       182  SOPE      H4X           -31.1007740341      -18.4701840991      -12.3390393006  MEMB      182             0.0000000000
     21118       182  SOPE      H4Y           -32.8719296549      -17.9061864388      -12.4666957570  MEMB      182             0.0000000000
     21119       182  SOPE      C35           -31.5127031275      -16.2995722529      -12.4706921293  MEMB      182             0.0000000000
     21120       182  SOPE      H5X           -31.4935926003      -15.5679408688      -13.2845741018  MEMB      182             0.0000000000
     21121       182  SOPE      H5Y           -30.4952084899      -16.1412577659      -12.1301415149  MEMB      182             0.0000000000
     21122       182  SOPE      C36           -31.9780787619      -15.9087627068      -11.1272547484  MEMB      182             0.0000000000
     21123       182  SOPE      H6X           -33.0412122701      -16.0369824225      -11.2181790841  MEMB      182             0.0000000000
     21124       182  SOPE      H6Y           -31.5940660681      -14.8919273115      -10.8517032014  MEMB      182             0.0000000000
     21125       182  SOPE      C37           -31.4540702499      -16.8473620320      -10.0953314050  MEMB      182             0.0000000000
     21126       182  SOPE      H7X           -30.4753777881      -16.3205473231      -10.1279022317  MEMB      182             0.0000000000
     21127       182  SOPE      H7Y           -31.3111676143      -17.9181557852      -10.3415853597  MEMB      182             0.0000000000
     21128       182  SOPE      C38           -32.1931983667      -16.7291052074       -8.7787677391  MEMB      182             0.0000000000
     21129       182  SOPE      H8X           -33.2652099756      -16.6372344469       -8.9777311220  MEMB      182             0.0000000000
     21130       182  SOPE      H8Y           -31.9210503092      -15.7057383794       -8.4292548855  MEMB      182             0.0000000000
     21131       182  SOPE      C39           -31.9428467457      -17.9148215631       -7.7746828160  MEMB      182             0.0000000000
     21132       182  SOPE      H9X           -30.8742910674      -18.0570974708       -7.6787811073  MEMB      182             0.0000000000
     21133       182  SOPE      H9Y           -31.9887683977      -18.9161705670       -8.1771717328  MEMB      182             0.0000000000
     21134       182  SOPE      C310          -32.5002390588      -17.6662560872       -6.3337177584  MEMB      182             0.0000000000
     21135       182  SOPE      H10X          -33.5380786840      -17.9819804445       -6.2807231520  MEMB      182             0.0000000000
     21136       182  SOPE      H10Y          -32.5649612513      -16.5590807918       -6.1609379507  MEMB      182             0.0000000000
     21137       182  SOPE      C311          -31.7552649637      -18.2531497628       -5.1013932455  MEMB      182             0.0000000000
     21138       182  SOPE      H11X          -30.6553674932      -18.1320998289       -5.0906742534  MEMB      182             0.0000000000
     21139       182  SOPE      H11Y          -31.8021542121      -19.3489109013       -5.0384727832  MEMB      182             0.0000000000
     21140       182  SOPE      C312          -32.3669714307      -17.6521420829       -3.8081654793  MEMB      182             0.0000000000
     21141       182  SOPE      H12X          -31.8360712343      -18.1536901756       -2.9819791498  MEMB      182             0.0000000000
     21142       182  SOPE      H12Y          -33.3864476312      -17.9425117148       -3.6452467419  MEMB      182             0.0000000000
     21143       182  SOPE      C313          -32.4297006139      -16.0998235227       -3.6538432821  MEMB      182             0.0000000000
     21144       182  SOPE      H13X          -33.0079929231      -15.5352238065       -4.3916102762  MEMB      182             0.0000000000
     21145       182  SOPE      H13Y          -31.3900204640      -15.9509993734       -3.9549061632  MEMB      182             0.0000000000
     21146       182  SOPE      C314          -32.5774694583      -15.4741660834       -2.2219592904  MEMB      182             0.0000000000
     21147       182  SOPE      H14X          -31.9029461839      -15.7602352665       -1.4434431837  MEMB      182             0.0000000000
     21148       182  SOPE      H14Y          -33.3284613328      -16.0625499310       -1.7064399799  MEMB      182             0.0000000000
     21149       182  SOPE      C315          -32.4370240631      -13.9517534573       -1.8904765748  MEMB      182             0.0000000000
     21150       182  SOPE      H15X          -31.5583603487      -13.3452096461       -2.1594301841  MEMB      182             0.0000000000
     21151       182  SOPE      H15Y          -32.4088169828      -13.9694106485       -0.7906089122  MEMB      182             0.0000000000
     21152       182  SOPE      C316          -33.5426645482      -13.1661055865       -2.3476244226  MEMB      182             0.0000000000
     21153       182  SOPE      H16X          -33.5504685137      -13.2611984820       -3.4644964194  MEMB      182             0.0000000000
     21154       182  SOPE      H16Y          -33.4289806668      -12.1050740666       -2.0456578522  MEMB      182             0.0000000000
     21155       182  SOPE      C317          -34.6119743026      -13.9649267775       -1.7103546234  MEMB      182             0.0000000000
     21156       182  SOPE      H17X          -34.8414013253      -13.8148695752       -0.6349666335  MEMB      182             0.0000000000
     21157       182  SOPE      H17Y          -34.7183837224      -15.0151009494       -1.9989344573  MEMB      182             0.0000000000
     21158       182  SOPE      C318          -35.6452724843      -14.0289280418       -2.6403954143  MEMB      182             0.0000000000
     21159       182  SOPE      H18X          -35.6898107210      -13.0289871331       -2.6375249327  MEMB      182             0.0000000000
     21160       182  SOPE      H18Y          -36.5704404936      -14.3050943649       -2.1366735625  MEMB      182             0.0000000000
     21161       182  SOPE      H18Z          -35.6160025118      -13.5157588396       -3.6052043373  MEMB      182             0.0000000000
     21162       183  CHL1      C3             32.7178234982      -23.7921651874      -17.3820791052  MEMB      183             0.0000000000
     21163       183  CHL1      H3             33.7848862659      -24.0985399976      -17.1950038360  MEMB      183             0.0000000000
     21164       183  CHL1      O3             32.3788572200      -23.7824614759      -18.7573832457  MEMB      183             0.0000000000
     21165       183  CHL1      H3'            31.4111773769      -23.9425318346      -18.8119526028  MEMB      183             0.0000000000
     21166       183  CHL1      C4             31.8522576605      -24.7872704281      -16.7114156592  MEMB      183             0.0000000000
     21167       183  CHL1      H4A            30.8402607470      -24.9500463859      -16.9880261151  MEMB      183             0.0000000000
     21168       183  CHL1      H4B            32.1965771609      -25.6677744996      -17.3347472565  MEMB      183             0.0000000000
     21169       183  CHL1      C5             32.0552475372      -24.5542897655      -15.1789673258  MEMB      183             0.0000000000
     21170       183  CHL1      C6             32.0917706678      -25.4120683650      -14.2501787119  MEMB      183             0.0000000000
     21171       183  CHL1      H6             31.5715468174      -26.2176795397      -14.7577057402  MEMB      183             0.0000000000
     21172       183  CHL1      C7             32.3154436559      -25.5889522724      -12.7003461467  MEMB      183             0.0000000000
     21173       183  CHL1      H7A            31.8437402234      -26.4027749238      -12.1392603845  MEMB      183             0.0000000000
     21174       183  CHL1      H7B            33.3180487366      -25.8637350794      -12.2642269751  MEMB      183             0.0000000000
     21175       183  CHL1      C8             31.7675697238      -24.5239522645      -12.0920568594  MEMB      183             0.0000000000
     21176       183  CHL1      H8             30.7526398902      -24.6388757460      -12.2815446013  MEMB      183             0.0000000000
     21177       183  CHL1      C14            32.0789039930      -24.6736263910      -10.6198241409  MEMB      183             0.0000000000
     21178       183  CHL1      H14            33.1668286121      -24.6708138389      -10.6118225072  MEMB      183             0.0000000000
     21179       183  CHL1      C15            31.9923129148      -25.9186835261       -9.6462661664  MEMB      183             0.0000000000
     21180       183  CHL1      H15A           31.0802453033      -26.3558470051       -9.3232661231  MEMB      183             0.0000000000
     21181       183  CHL1      H15B           32.2778921984      -26.9453115079       -9.8580013660  MEMB      183             0.0000000000
     21182       183  CHL1      C16            31.9741409628      -25.2741587856       -8.3375835255  MEMB      183             0.0000000000
     21183       183  CHL1      H16A           31.0914203146      -25.3629031013       -7.7242095544  MEMB      183             0.0000000000
     21184       183  CHL1      H16B           32.6143486167      -25.8761437758       -7.7174765526  MEMB      183             0.0000000000
     21185       183  CHL1      C17            32.1328190556      -23.7634942299       -8.5895741661  MEMB      183             0.0000000000
     21186       183  CHL1      H17            33.2268612870      -23.6549322428       -8.6800554642  MEMB      183             0.0000000000
     21187       183  CHL1      C13            31.6083265573      -23.4255002292       -9.9864712209  MEMB      183             0.0000000000
     21188       183  CHL1      C18            30.1073475365      -23.1893705603       -9.9993380404  MEMB      183             0.0000000000
     21189       183  CHL1      H18A           29.5674790258      -23.2694499797      -10.9748231199  MEMB      183             0.0000000000
     21190       183  CHL1      H18B           29.8431126090      -24.0157431408       -9.3477138339  MEMB      183             0.0000000000
     21191       183  CHL1      H18C           29.7225646290      -22.3182548728       -9.4468270753  MEMB      183             0.0000000000
     21192       183  CHL1      C12            32.2793583541      -22.3164598806      -10.7469639370  MEMB      183             0.0000000000
     21193       183  CHL1      H12A           32.0060412475      -21.3861696786      -10.2594784626  MEMB      183             0.0000000000
     21194       183  CHL1      H12B           33.3586034576      -22.5686775030      -10.6932856499  MEMB      183             0.0000000000
     21195       183  CHL1      C11            31.9195477932      -22.1650127053      -12.2127106523  MEMB      183             0.0000000000
     21196       183  CHL1      H11A           30.8827166164      -21.8340241955      -12.4124601088  MEMB      183             0.0000000000
     21197       183  CHL1      H11B           32.6418969828      -21.4946314716      -12.6821514035  MEMB      183             0.0000000000
     21198       183  CHL1      C9             32.2601591679      -23.3858634715      -12.9227343810  MEMB      183             0.0000000000
     21199       183  CHL1      H9             33.3608475464      -23.5653594983      -12.9795299926  MEMB      183             0.0000000000
     21200       183  CHL1      C10            31.7958327786      -23.3622678549      -14.4142797224  MEMB      183             0.0000000000
     21201       183  CHL1      C19            30.3159712150      -23.0717720597      -14.4138348482  MEMB      183             0.0000000000
     21202       183  CHL1      H19A           30.1080371652      -22.0246836505      -14.6079948218  MEMB      183             0.0000000000
     21203       183  CHL1      H19B           29.8983922586      -23.6000174848      -15.2265299920  MEMB      183             0.0000000000
     21204       183  CHL1      H19C           29.6835511948      -23.4157631004      -13.6010135752  MEMB      183             0.0000000000
     21205       183  CHL1      C1             32.5580768954      -22.3885753768      -15.2428556082  MEMB      183             0.0000000000
     21206       183  CHL1      H1A            32.1825994074      -21.4206901988      -14.8711055409  MEMB      183             0.0000000000
     21207       183  CHL1      H1B            33.6236652811      -22.5647952005      -15.0073378159  MEMB      183             0.0000000000
     21208       183  CHL1      C2             32.4552920927      -22.4340142371      -16.7725404041  MEMB      183             0.0000000000
     21209       183  CHL1      H2A            33.1731195000      -21.7390734623      -17.2055383890  MEMB      183             0.0000000000
     21210       183  CHL1      H2B            31.5014800920      -22.0182892682      -17.0431711155  MEMB      183             0.0000000000
     21211       183  CHL1      C20            31.6513035820      -22.9951535727       -7.3912054717  MEMB      183             0.0000000000
     21212       183  CHL1      H20            30.5388548387      -23.0713220240       -7.3244143489  MEMB      183             0.0000000000
     21213       183  CHL1      C21            32.0121179442      -21.5199560231       -7.5444700196  MEMB      183             0.0000000000
     21214       183  CHL1      H21A           31.7567809790      -20.9783201796       -6.6106184786  MEMB      183             0.0000000000
     21215       183  CHL1      H21B           31.4426895099      -21.0524566208       -8.3688113381  MEMB      183             0.0000000000
     21216       183  CHL1      H21C           33.0954655938      -21.4174273766       -7.7690783162  MEMB      183             0.0000000000
     21217       183  CHL1      C22            32.3425569321      -23.5826338027       -6.1311283954  MEMB      183             0.0000000000
     21218       183  CHL1      H22A           32.4681632599      -24.6829569042       -6.1563320998  MEMB      183             0.0000000000
     21219       183  CHL1      H22B           33.3810562462      -23.2018174819       -6.0848748436  MEMB      183             0.0000000000
     21220       183  CHL1      C23            31.6120052039      -23.3046535606       -4.8191361598  MEMB      183             0.0000000000
     21221       183  CHL1      H23A           31.3328282234      -22.2330153529       -4.7449547435  MEMB      183             0.0000000000
     21222       183  CHL1      H23B           30.6869504260      -23.9189063750       -4.8435937355  MEMB      183             0.0000000000
     21223       183  CHL1      C24            32.4365018867      -23.7470416847       -3.6034753880  MEMB      183             0.0000000000
     21224       183  CHL1      H24A           33.0054082882      -24.6618296375       -3.8839755540  MEMB      183             0.0000000000
     21225       183  CHL1      H24B           33.1586558753      -22.9598277296       -3.2974338974  MEMB      183             0.0000000000
     21226       183  CHL1      C25            31.6248726760      -24.1690781711       -2.3725454809  MEMB      183             0.0000000000
     21227       183  CHL1      H25            30.8609519227      -24.9136096014       -2.7065335798  MEMB      183             0.0000000000
     21228       183  CHL1      C26            32.5620940383      -24.8057829418       -1.3511567814  MEMB      183             0.0000000000
     21229       183  CHL1      H26A           33.5647088914      -24.3325845024       -1.4237104109  MEMB      183             0.0000000000
     21230       183  CHL1      H26B           32.2003379834      -24.6636016923       -0.3095931300  MEMB      183             0.0000000000
     21231       183  CHL1      H26C           32.6411021566      -25.8845493950       -1.5906448048  MEMB      183             0.0000000000
     21232       183  CHL1      C27            30.9013609116      -23.0182906999       -1.7059559302  MEMB      183             0.0000000000
     21233       183  CHL1      H27A           31.6012857603      -22.3310667915       -1.1980124055  MEMB      183             0.0000000000
     21234       183  CHL1      H27B           30.3131869729      -22.4805919765       -2.4754745326  MEMB      183             0.0000000000
     21235       183  CHL1      H27C           30.2052494387      -23.4409167908       -0.9449829517  MEMB      183             0.0000000000
     21236       184  OSM       N             -26.8115238089       30.9746304785      -22.3131344192  MEMB      184             0.0000000000
     21237       184  OSM       C15           -27.5946788703       29.8837392167      -22.9729485772  MEMB      184             0.0000000000
     21238       184  OSM       H15A          -28.3561023090       30.2535801348      -23.6369424867  MEMB      184             0.0000000000
     21239       184  OSM       H15B          -28.1167421468       29.2802849244      -22.2144297467  MEMB      184             0.0000000000
     21240       184  OSM       H15C          -26.9961718499       29.1702425995      -23.5196127383  MEMB      184             0.0000000000
     21241       184  OSM       C14           -25.8119888151       30.2692486435      -21.4544091124  MEMB      184             0.0000000000
     21242       184  OSM       H14A          -25.2122349504       30.9215311045      -20.8494044990  MEMB      184             0.0000000000
     21243       184  OSM       H14B          -25.1512739688       29.6405297357      -22.0351118778  MEMB      184             0.0000000000
     21244       184  OSM       H14C          -26.3697911388       29.6021388099      -20.7743737764  MEMB      184             0.0000000000
     21245       184  OSM       C13           -26.1426401112       31.8255306071      -23.3403066765  MEMB      184             0.0000000000
     21246       184  OSM       H13A          -26.8318485175       32.5342262046      -23.7797542657  MEMB      184             0.0000000000
     21247       184  OSM       H13B          -25.7336619880       31.2145010555      -24.1387910091  MEMB      184             0.0000000000
     21248       184  OSM       H13C          -25.3418934721       32.3786365615      -22.8825576031  MEMB      184             0.0000000000
     21249       184  OSM       C12           -27.7623255060       31.7954161505      -21.4726872388  MEMB      184             0.0000000000
     21250       184  OSM       H12A          -28.5947260214       32.0640281081      -22.1192757527  MEMB      184             0.0000000000
     21251       184  OSM       H12B          -27.2748720864       32.7080112339      -21.1600765102  MEMB      184             0.0000000000
     21252       184  OSM       C11           -28.3491502619       31.1098346924      -20.2099626444  MEMB      184             0.0000000000
     21253       184  OSM       H11A          -29.0908174992       31.7965659504      -19.7453561455  MEMB      184             0.0000000000
     21254       184  OSM       H11B          -27.5290344056       30.9272911250      -19.4743134037  MEMB      184             0.0000000000
     21255       184  OSM       P             -29.0016608551       28.5031362828      -19.9205085474  MEMB      184             0.0000000000
     21256       184  OSM       O13           -29.7495857304       27.6098856850      -20.8033974694  MEMB      184             0.0000000000
     21257       184  OSM       O14           -27.5837811757       28.1596409711      -19.7211961267  MEMB      184             0.0000000000
     21258       184  OSM       O11           -29.6772682808       28.6792737022      -18.5149346085  MEMB      184             0.0000000000
     21259       184  OSM       O12           -29.0414497649       29.9342929319      -20.5722330862  MEMB      184             0.0000000000
     21260       184  OSM       C1S           -29.6844988147       27.6201641038      -17.5554261132  MEMB      184             0.0000000000
     21261       184  OSM       H1S           -28.7361440213       27.0480684945      -17.5052487016  MEMB      184             0.0000000000
     21262       184  OSM       H1T           -30.5477113062       26.9385858918      -17.7529218144  MEMB      184             0.0000000000
     21263       184  OSM       NF            -29.5381710099       27.2845965372      -15.1248133064  MEMB      184             0.0000000000
     21264       184  OSM       HNF           -30.2984201429       26.9114108922      -14.6253294237  MEMB      184             0.0000000000
     21265       184  OSM       C2S           -29.8263722585       28.2122744099      -16.1517873749  MEMB      184             0.0000000000
     21266       184  OSM       H2S           -29.2127167376       29.1463892048      -16.0407167940  MEMB      184             0.0000000000
     21267       184  OSM       C3S           -31.1863042511       28.6629058165      -16.0205999981  MEMB      184             0.0000000000
     21268       184  OSM       H3S           -31.9091325012       27.7892981506      -16.1469967601  MEMB      184             0.0000000000
     21269       184  OSM       O3            -31.2954342142       29.7515800240      -16.9119796857  MEMB      184             0.0000000000
     21270       184  OSM       HO3           -30.7577560642       29.5569794992      -17.6957412431  MEMB      184             0.0000000000
     21271       184  OSM       C4S           -31.4249799561       29.2950292629      -14.7250498802  MEMB      184             0.0000000000
     21272       184  OSM       H4S           -31.1748183080       30.3456794173      -14.6564756177  MEMB      184             0.0000000000
     21273       184  OSM       C5S           -31.8353091889       28.7363864015      -13.6210086259  MEMB      184             0.0000000000
     21274       184  OSM       H5S           -32.2223248832       27.6927394990      -13.6207734443  MEMB      184             0.0000000000
     21275       184  OSM       C6S           -32.0535796645       29.6389298092      -12.4593859637  MEMB      184             0.0000000000
     21276       184  OSM       H6S           -33.0354353891       30.0995724605      -12.6580779596  MEMB      184             0.0000000000
     21277       184  OSM       H6T           -31.6893183095       30.6552112187      -12.4101521372  MEMB      184             0.0000000000
     21278       184  OSM       C7S           -31.7258051361       28.8619495574      -11.2047803038  MEMB      184             0.0000000000
     21279       184  OSM       H7S           -30.6506687955       28.7161441834      -11.1160483286  MEMB      184             0.0000000000
     21280       184  OSM       H7T           -31.9600701335       27.8079607886      -11.4423630183  MEMB      184             0.0000000000
     21281       184  OSM       C8S           -32.3119309078       29.4700723340       -9.8940479417  MEMB      184             0.0000000000
     21282       184  OSM       H8S           -33.4049725636       29.3525532964       -9.8289579925  MEMB      184             0.0000000000
     21283       184  OSM       H8T           -32.2128184129       30.5626202931       -9.9135907757  MEMB      184             0.0000000000
     21284       184  OSM       C9S           -31.8211661277       28.8765408164       -8.5624676956  MEMB      184             0.0000000000
     21285       184  OSM       H9S           -31.9240232234       27.7679009088       -8.5013113235  MEMB      184             0.0000000000
     21286       184  OSM       H9T           -32.4132553902       29.3489244721       -7.7321393181  MEMB      184             0.0000000000
     21287       184  OSM       C10S          -30.3564589199       28.7791496461       -8.3676764710  MEMB      184             0.0000000000
     21288       184  OSM       H10S          -29.9368749471       28.2900987156       -9.2740912052  MEMB      184             0.0000000000
     21289       184  OSM       H10T          -30.1302007781       28.1087647671       -7.5061910311  MEMB      184             0.0000000000
     21290       184  OSM       C11S          -29.7822855053       30.1372744161       -8.1290609276  MEMB      184             0.0000000000
     21291       184  OSM       H11S          -29.9781254333       30.7525965956       -9.0371318428  MEMB      184             0.0000000000
     21292       184  OSM       H11T          -28.7079079152       29.8962766283       -7.9978895624  MEMB      184             0.0000000000
     21293       184  OSM       C12S          -30.2932447314       30.8369828986       -6.8642835015  MEMB      184             0.0000000000
     21294       184  OSM       H12S          -31.3800175924       31.0608301000       -6.9266615422  MEMB      184             0.0000000000
     21295       184  OSM       H12T          -29.7709490630       31.8134488904       -6.7732212567  MEMB      184             0.0000000000
     21296       184  OSM       C13S          -30.0610649024       30.0011892074       -5.6019709134  MEMB      184             0.0000000000
     21297       184  OSM       H13S          -28.9965282925       29.6876035978       -5.5426610950  MEMB      184             0.0000000000
     21298       184  OSM       H13T          -30.6643433629       29.0674012460       -5.6755922594  MEMB      184             0.0000000000
     21299       184  OSM       C14S          -30.5132728783       30.7332670226       -4.3339856441  MEMB      184             0.0000000000
     21300       184  OSM       H14S          -30.5687869965       29.9847249201       -3.5137550623  MEMB      184             0.0000000000
     21301       184  OSM       H14T          -31.5222643557       31.1718333442       -4.4921964042  MEMB      184             0.0000000000
     21302       184  OSM       C15S          -29.6222352370       31.8697741377       -3.8569710289  MEMB      184             0.0000000000
     21303       184  OSM       H15S          -30.1407825351       32.3773315739       -3.0121172442  MEMB      184             0.0000000000
     21304       184  OSM       H15T          -29.4195468233       32.6262478440       -4.6502791398  MEMB      184             0.0000000000
     21305       184  OSM       C16S          -28.2845985463       31.3913399759       -3.3529422307  MEMB      184             0.0000000000
     21306       184  OSM       H16S          -27.8301823270       30.6814816686       -4.0717102010  MEMB      184             0.0000000000
     21307       184  OSM       H16T          -28.3749868616       30.9188620900       -2.3441106891  MEMB      184             0.0000000000
     21308       184  OSM       C17S          -27.3850359915       32.5878108276       -3.2555671623  MEMB      184             0.0000000000
     21309       184  OSM       H17S          -27.2075331119       33.0852981801       -4.2246743377  MEMB      184             0.0000000000
     21310       184  OSM       H17T          -26.4128784233       32.1506721404       -2.9943967170  MEMB      184             0.0000000000
     21311       184  OSM       C18S          -27.9236598465       33.5496222434       -2.2038282779  MEMB      184             0.0000000000
     21312       184  OSM       H18S          -28.9388366591       33.9080566533       -2.2087982333  MEMB      184             0.0000000000
     21313       184  OSM       H18T          -27.2322816890       34.3455460193       -1.9360045479  MEMB      184             0.0000000000
     21314       184  OSM       H18U          -27.9509011257       33.0301305151       -1.2737324554  MEMB      184             0.0000000000
     21315       184  OSM       C1F           -28.3353295215       27.1205669621      -14.7259551417  MEMB      184             0.0000000000
     21316       184  OSM       OF            -27.4044791483       27.6148846730      -15.3372047539  MEMB      184             0.0000000000
     21317       184  OSM       C2F           -28.2828207242       26.4368051672      -13.4033988797  MEMB      184             0.0000000000
     21318       184  OSM       H2F           -28.2755998381       25.3568684297      -13.4131873681  MEMB      184             0.0000000000
     21319       184  OSM       H2G           -29.2082935234       26.5638262776      -12.8578762190  MEMB      184             0.0000000000
     21320       184  OSM       C3F           -27.1771289926       26.9758952508      -12.5586210824  MEMB      184             0.0000000000
     21321       184  OSM       H3F           -26.4759118490       27.1175846796      -13.2767402110  MEMB      184             0.0000000000
     21322       184  OSM       H3G           -26.5564520157       26.3516829403      -11.9450734904  MEMB      184             0.0000000000
     21323       184  OSM       C4F           -27.3726038517       28.2820897774      -11.9324917362  MEMB      184             0.0000000000
     21324       184  OSM       H4F           -28.3598574870       28.2712414613      -11.4391296197  MEMB      184             0.0000000000
     21325       184  OSM       H4G           -27.3298987215       28.9983198498      -12.7835553012  MEMB      184             0.0000000000
     21326       184  OSM       C5F           -26.2062221510       28.6070986426      -11.0334758927  MEMB      184             0.0000000000
     21327       184  OSM       H5F           -25.2908695795       28.6422399063      -11.6618113488  MEMB      184             0.0000000000
     21328       184  OSM       H5G           -25.9816830876       27.8255470271      -10.2703614215  MEMB      184             0.0000000000
     21329       184  OSM       C6F           -26.4594292650       29.9885149445      -10.4664372145  MEMB      184             0.0000000000
     21330       184  OSM       H6F           -27.4255949403       30.0581395461       -9.9369473814  MEMB      184             0.0000000000
     21331       184  OSM       H6G           -26.4194343044       30.7557229625      -11.2847533401  MEMB      184             0.0000000000
     21332       184  OSM       C7F           -25.3682459982       30.3231143386       -9.5105175036  MEMB      184             0.0000000000
     21333       184  OSM       H7F           -24.5379453024       30.2403615944      -10.2524245300  MEMB      184             0.0000000000
     21334       184  OSM       H7G           -25.1619337257       29.5543532409       -8.7548973211  MEMB      184             0.0000000000
     21335       184  OSM       C8F           -25.5431940018       31.6995212892       -8.8411832880  MEMB      184             0.0000000000
     21336       184  OSM       H8F           -25.6995654829       32.4288749306       -9.6397140073  MEMB      184             0.0000000000
     21337       184  OSM       H8G           -24.7159956022       32.0612859146       -8.2223084773  MEMB      184             0.0000000000
     21338       184  OSM       C9F           -26.5611920343       31.8633253426       -7.8135523025  MEMB      184             0.0000000000
     21339       184  OSM       H9F           -27.2455654715       32.6767423550       -8.0448928323  MEMB      184             0.0000000000
     21340       184  OSM       C10F          -26.5650919242       31.2248302422       -6.6454054950  MEMB      184             0.0000000000
     21341       184  OSM       H10F          -27.4138828072       31.4099243461       -5.9860020005  MEMB      184             0.0000000000
     21342       184  OSM       C11F          -25.5456235045       30.2254436974       -6.1734001455  MEMB      184             0.0000000000
     21343       184  OSM       H11F          -25.3209817236       30.3839109550       -5.0964004478  MEMB      184             0.0000000000
     21344       184  OSM       H11G          -24.5707540063       30.2531553601       -6.7054327853  MEMB      184             0.0000000000
     21345       184  OSM       C12F          -26.0940192676       28.8364433446       -6.3976131975  MEMB      184             0.0000000000
     21346       184  OSM       H12F          -26.3468191630       28.5808356358       -7.4529502991  MEMB      184             0.0000000000
     21347       184  OSM       H12G          -26.9925287494       28.6741208647       -5.7569378119  MEMB      184             0.0000000000
     21348       184  OSM       C13F          -25.0808455435       27.8456891722       -5.9281501089  MEMB      184             0.0000000000
     21349       184  OSM       H13F          -24.8358561964       28.0846828105       -4.8943113966  MEMB      184             0.0000000000
     21350       184  OSM       H13G          -24.2613938192       27.6456668041       -6.6255617862  MEMB      184             0.0000000000
     21351       184  OSM       C14F          -25.7248883897       26.6104588419       -5.6976306045  MEMB      184             0.0000000000
     21352       184  OSM       H14F          -25.1165014720       25.6763186137       -5.8384710361  MEMB      184             0.0000000000
     21353       184  OSM       H14G          -26.5749869343       26.7375519827       -6.4531987673  MEMB      184             0.0000000000
     21354       184  OSM       C15F          -26.3672104746       26.4410622939       -4.3489545662  MEMB      184             0.0000000000
     21355       184  OSM       H15F          -26.7475201106       27.2716176418       -3.7657893531  MEMB      184             0.0000000000
     21356       184  OSM       H15G          -25.8179475530       25.6193703786       -3.7945417936  MEMB      184             0.0000000000
     21357       184  OSM       C16F          -27.7791778006       26.1787758235       -4.7172012984  MEMB      184             0.0000000000
     21358       184  OSM       H16F          -27.1998485550       25.3943948633       -5.2604502600  MEMB      184             0.0000000000
     21359       184  OSM       H16G          -28.3540512026       26.3052459888       -5.6092138213  MEMB      184             0.0000000000
     21360       184  OSM       C17F          -28.8243244000       25.9066704068       -3.6514473193  MEMB      184             0.0000000000
     21361       184  OSM       H17F          -28.0548346654       25.1569715488       -3.4510692986  MEMB      184             0.0000000000
     21362       184  OSM       H17G          -29.9176106983       25.6001675746       -3.8436597637  MEMB      184             0.0000000000
     21363       184  OSM       C18F          -29.1186280742       26.4947988076       -2.3032033387  MEMB      184             0.0000000000
     21364       184  OSM       H18F          -29.7550281119       25.8210170297       -1.6610164060  MEMB      184             0.0000000000
     21365       184  OSM       H18G          -29.7311364261       27.2911450663       -2.6862461698  MEMB      184             0.0000000000
     21366       184  OSM       H18H          -28.2572619812       26.6797720487       -1.6548699686  MEMB      184             0.0000000000
     21367       185  SAPE      N              32.6820110940       29.2660990915      -18.9164129798  MEMB      185             0.0000000000
     21368       185  SAPE      HN1            32.5342416960       29.8638425559      -19.7579465485  MEMB      185             0.0000000000
     21369       185  SAPE      HN2            33.3664370416       29.6504242164      -18.2369576389  MEMB      185             0.0000000000
     21370       185  SAPE      HN3            32.9244262704       28.2867696868      -19.1576499918  MEMB      185             0.0000000000
     21371       185  SAPE      C12            31.3813284551       29.2240223914      -18.1849035007  MEMB      185             0.0000000000
     21372       185  SAPE      H12A           31.2074852687       30.2046593782      -17.7102672798  MEMB      185             0.0000000000
     21373       185  SAPE      H12B           31.5293497574       28.4875434579      -17.4632463814  MEMB      185             0.0000000000
     21374       185  SAPE      C11            30.1876554548       28.7781840470      -18.9798291895  MEMB      185             0.0000000000
     21375       185  SAPE      H11A           29.3083882554       28.6639222117      -18.2849613645  MEMB      185             0.0000000000
     21376       185  SAPE      H11B           30.3367141675       27.7809040136      -19.4637230103  MEMB      185             0.0000000000
     21377       185  SAPE      P              28.7985015701       29.8111588030      -20.8726331832  MEMB      185             0.0000000000
     21378       185  SAPE      O13            29.2752869633       29.0330130256      -22.0369327842  MEMB      185             0.0000000000
     21379       185  SAPE      O14            27.6346354060       29.3330771340      -20.0938794407  MEMB      185             0.0000000000
     21380       185  SAPE      O12            30.0324623174       29.8448374911      -19.8968595460  MEMB      185             0.0000000000
     21381       185  SAPE      O11            28.5949705142       31.3485215647      -21.2413648525  MEMB      185             0.0000000000
     21382       185  SAPE      C1             29.7024745463       32.2223344306      -21.4906460601  MEMB      185             0.0000000000
     21383       185  SAPE      HA             30.6287403542       31.6512461268      -21.6837300892  MEMB      185             0.0000000000
     21384       185  SAPE      HB             29.5379011780       32.7286143993      -22.4592347252  MEMB      185             0.0000000000
     21385       185  SAPE      C2             29.8769505725       33.4283087441      -20.4889352159  MEMB      185             0.0000000000
     21386       185  SAPE      HS             30.5822354962       34.1340932599      -20.9909495584  MEMB      185             0.0000000000
     21387       185  SAPE      O21            30.4007728172       33.0198697457      -19.2133494216  MEMB      185             0.0000000000
     21388       185  SAPE      C21            30.8615345151       34.0162129599      -18.4711778450  MEMB      185             0.0000000000
     21389       185  SAPE      O22            31.2347306562       35.0944243398      -18.8903104111  MEMB      185             0.0000000000
     21390       185  SAPE      C22            30.7453507330       33.6000917017      -17.0047638789  MEMB      185             0.0000000000
     21391       185  SAPE      H2R            30.2352301906       32.6277269031      -16.8997429357  MEMB      185             0.0000000000
     21392       185  SAPE      H2S            31.7678520681       33.5581010931      -16.5787690138  MEMB      185             0.0000000000
     21393       185  SAPE      C3             28.5471717428       34.1943998555      -20.2511899979  MEMB      185             0.0000000000
     21394       185  SAPE      HX             28.2177673405       34.5732735182      -21.2389426299  MEMB      185             0.0000000000
     21395       185  SAPE      HY             28.7487927041       35.0760921304      -19.6083188008  MEMB      185             0.0000000000
     21396       185  SAPE      O31            27.5503234758       33.3086500460      -19.7173111386  MEMB      185             0.0000000000
     21397       185  SAPE      C31            26.9712785258       33.5436899416      -18.5612588418  MEMB      185             0.0000000000
     21398       185  SAPE      O32            27.0480071501       34.5963325057      -17.9392772307  MEMB      185             0.0000000000
     21399       185  SAPE      C32            26.1146946178       32.3229423171      -18.1912970113  MEMB      185             0.0000000000
     21400       185  SAPE      H2X            26.4812547694       31.3967106707      -18.6894262221  MEMB      185             0.0000000000
     21401       185  SAPE      H2Y            25.1258481907       32.5361751779      -18.6480552684  MEMB      185             0.0000000000
     21402       185  SAPE      C23            29.8511943128       34.5356007780      -16.1928981580  MEMB      185             0.0000000000
     21403       185  SAPE      H3R            28.7934165922       34.4882475524      -16.4428543172  MEMB      185             0.0000000000
     21404       185  SAPE      H3S            30.0901325609       35.5506701260      -16.5478645061  MEMB      185             0.0000000000
     21405       185  SAPE      C24            29.9715037395       34.3386906872      -14.6586327518  MEMB      185             0.0000000000
     21406       185  SAPE      H4R            29.5533850833       35.2437915797      -14.2065646074  MEMB      185             0.0000000000
     21407       185  SAPE      H4S            30.9704894088       34.4344505640      -14.3276223650  MEMB      185             0.0000000000
     21408       185  SAPE      C25            29.6907222918       33.1375451620      -13.8736362151  MEMB      185             0.0000000000
     21409       185  SAPE      H5R            28.6368729368       32.9679044131      -13.8059714592  MEMB      185             0.0000000000
     21410       185  SAPE      C26            30.5918276291       32.3921088493      -13.2138401622  MEMB      185             0.0000000000
     21411       185  SAPE      H6R            30.2694332133       31.5219546451      -12.6448721813  MEMB      185             0.0000000000
     21412       185  SAPE      C27            32.0537077573       32.7087399557      -13.2074139753  MEMB      185             0.0000000000
     21413       185  SAPE      H7R            32.3273573043       33.4638496847      -12.4199823495  MEMB      185             0.0000000000
     21414       185  SAPE      H7S            32.3221880481       33.1818674866      -14.1431826112  MEMB      185             0.0000000000
     21415       185  SAPE      C28            32.9984179166       31.5973192967      -13.1356829843  MEMB      185             0.0000000000
     21416       185  SAPE      H8R            33.4510817519       31.1073871598      -13.9976341310  MEMB      185             0.0000000000
     21417       185  SAPE      C29            33.2570771981       31.1863566256      -11.9663549020  MEMB      185             0.0000000000
     21418       185  SAPE      H9R            34.0134203785       30.3792687385      -11.9641462253  MEMB      185             0.0000000000
     21419       185  SAPE      C210           32.5994724516       31.7926682409      -10.7354127107  MEMB      185             0.0000000000
     21420       185  SAPE      H10R           32.3266590642       32.8159061525      -10.5339265748  MEMB      185             0.0000000000
     21421       185  SAPE      H10S           33.4818764780       32.0313757458      -10.1463943125  MEMB      185             0.0000000000
     21422       185  SAPE      C211           31.5221419348       30.9230407602      -10.1772354426  MEMB      185             0.0000000000
     21423       185  SAPE      H11R           30.5619906168       30.7244605022      -10.7379522335  MEMB      185             0.0000000000
     21424       185  SAPE      C212           31.6224113918       30.2607923757       -9.0348663092  MEMB      185             0.0000000000
     21425       185  SAPE      H12R           30.8221171136       29.5502505325       -9.2791634535  MEMB      185             0.0000000000
     21426       185  SAPE      C213           32.5444102716       29.8504481927       -7.6291932124  MEMB      185             0.0000000000
     21427       185  SAPE      H13R           33.2904360306       29.5535060285       -7.9222720338  MEMB      185             0.0000000000
     21428       185  SAPE      H13S           32.9826782335       28.8144403156       -7.5820202832  MEMB      185             0.0000000000
     21429       185  SAPE      C214           32.6399516274       29.9495483362       -6.0569916666  MEMB      185             0.0000000000
     21430       185  SAPE      H14R           32.7843416075       31.0256536047       -5.8068606179  MEMB      185             0.0000000000
     21431       185  SAPE      C215           32.0145486534       29.2445318171       -5.0992448068  MEMB      185             0.0000000000
     21432       185  SAPE      H15R           31.4907571803       30.0304231030       -4.5018790018  MEMB      185             0.0000000000
     21433       185  SAPE      C216           31.0612674370       28.1208714074       -4.8481402162  MEMB      185             0.0000000000
     21434       185  SAPE      H16R           31.7612920021       27.5734196727       -4.2648409063  MEMB      185             0.0000000000
     21435       185  SAPE      H16S           30.8766074574       27.3772552826       -5.5867093629  MEMB      185             0.0000000000
     21436       185  SAPE      C217           29.5793561869       27.8977374873       -4.6101628718  MEMB      185             0.0000000000
     21437       185  SAPE      H17R           29.3756924119       26.8314716313       -4.5097931642  MEMB      185             0.0000000000
     21438       185  SAPE      H17S           28.8835667657       28.2690113288       -5.3717596276  MEMB      185             0.0000000000
     21439       185  SAPE      C218           29.0674299815       28.3049167126       -3.3294162118  MEMB      185             0.0000000000
     21440       185  SAPE      H18R           27.9816580889       28.2695161189       -3.4146755433  MEMB      185             0.0000000000
     21441       185  SAPE      H18S           29.3055779310       29.3249091708       -3.4758908132  MEMB      185             0.0000000000
     21442       185  SAPE      C219           29.7780139866       27.9027412608       -2.0015690280  MEMB      185             0.0000000000
     21443       185  SAPE      H19R           30.7466228491       28.2360603684       -2.4225571017  MEMB      185             0.0000000000
     21444       185  SAPE      H19S           30.1754259300       26.9250551262       -1.9885068466  MEMB      185             0.0000000000
     21445       185  SAPE      C220           29.3766668682       28.4730643292       -0.4944986008  MEMB      185             0.0000000000
     21446       185  SAPE      H20R           30.1110305144       28.5946290922        0.3254260368  MEMB      185             0.0000000000
     21447       185  SAPE      H20S           28.2726925628       28.4085101366       -0.4179354932  MEMB      185             0.0000000000
     21448       185  SAPE      H20T           29.4173560411       29.5305647769       -0.0329650424  MEMB      185             0.0000000000
     21449       185  SAPE      C33            25.9865219051       32.1583385980      -16.6508680866  MEMB      185             0.0000000000
     21450       185  SAPE      H3X            25.0128176722       31.6645783243      -16.4286585715  MEMB      185             0.0000000000
     21451       185  SAPE      H3Y            25.9719943941       33.1548137262      -16.1579063805  MEMB      185             0.0000000000
     21452       185  SAPE      C34            27.0777152518       31.3154483401      -15.9805957121  MEMB      185             0.0000000000
     21453       185  SAPE      H4X            28.0930541681       31.7265515456      -16.1718014502  MEMB      185             0.0000000000
     21454       185  SAPE      H4Y            27.0834639712       30.2859554545      -16.4076024430  MEMB      185             0.0000000000
     21455       185  SAPE      C35            26.8603137763       31.1281317961      -14.4745001217  MEMB      185             0.0000000000
     21456       185  SAPE      H5X            25.8559621444       30.6969150492      -14.2560137517  MEMB      185             0.0000000000
     21457       185  SAPE      H5Y            26.9079081629       32.0726674741      -13.8910399688  MEMB      185             0.0000000000
     21458       185  SAPE      C36            27.9028461340       30.1351866089      -13.9897352015  MEMB      185             0.0000000000
     21459       185  SAPE      H6X            28.9236176055       30.3984475202      -14.3436293316  MEMB      185             0.0000000000
     21460       185  SAPE      H6Y            27.6588569405       29.1240075589      -14.3905968292  MEMB      185             0.0000000000
     21461       185  SAPE      C37            27.9398888895       30.0734231253      -12.4893340768  MEMB      185             0.0000000000
     21462       185  SAPE      H7X            28.2857606866       31.0564199551      -12.0989613119  MEMB      185             0.0000000000
     21463       185  SAPE      H7Y            28.6688610856       29.2764524139      -12.2138391917  MEMB      185             0.0000000000
     21464       185  SAPE      C38            26.5802608030       29.7468195918      -11.9112873711  MEMB      185             0.0000000000
     21465       185  SAPE      H8X            26.1428150405       28.8870482890      -12.4584454562  MEMB      185             0.0000000000
     21466       185  SAPE      H8Y            25.8601602247       30.5901395475      -11.9994414393  MEMB      185             0.0000000000
     21467       185  SAPE      C39            26.7819969577       29.3726734284      -10.4734787821  MEMB      185             0.0000000000
     21468       185  SAPE      H9X            27.5136399381       28.5431782256      -10.3931472647  MEMB      185             0.0000000000
     21469       185  SAPE      H9Y            25.8346396295       29.0230037002      -10.1009919663  MEMB      185             0.0000000000
     21470       185  SAPE      C310           27.1754855464       30.5568876542       -9.6591147556  MEMB      185             0.0000000000
     21471       185  SAPE      H10X           26.4873818051       31.4200817726       -9.7693984440  MEMB      185             0.0000000000
     21472       185  SAPE      H10Y           28.2153351954       30.8668748653       -9.9196242847  MEMB      185             0.0000000000
     21473       185  SAPE      C311           27.0441259889       30.2919079163       -8.2241546305  MEMB      185             0.0000000000
     21474       185  SAPE      H11X           27.5495605168       29.3329596387       -7.9163873604  MEMB      185             0.0000000000
     21475       185  SAPE      H11Y           26.0437741905       30.3112485687       -7.7712143284  MEMB      185             0.0000000000
     21476       185  SAPE      C312           27.6883626322       31.4755544962       -7.6089608126  MEMB      185             0.0000000000
     21477       185  SAPE      H12X           28.6742587370       31.4292596922       -8.0430939790  MEMB      185             0.0000000000
     21478       185  SAPE      H12Y           27.5347803723       31.0573118743       -6.6601338606  MEMB      185             0.0000000000
     21479       185  SAPE      C313           27.5596104577       32.9954559472       -7.7307689119  MEMB      185             0.0000000000
     21480       185  SAPE      H13X           26.4715592437       33.0721258248       -7.6390218403  MEMB      185             0.0000000000
     21481       185  SAPE      H13Y           27.9857626285       33.1982599734       -8.7327402946  MEMB      185             0.0000000000
     21482       185  SAPE      C314           28.2078937138       34.0990555411       -6.7653171993  MEMB      185             0.0000000000
     21483       185  SAPE      H14X           27.6222558728       34.1629953507       -5.8193594184  MEMB      185             0.0000000000
     21484       185  SAPE      H14Y           28.0878313221       34.9784679627       -7.2915599607  MEMB      185             0.0000000000
     21485       185  SAPE      C315           29.7371979034       34.4790518011       -6.6055184983  MEMB      185             0.0000000000
     21486       185  SAPE      H15X           30.2723380773       34.2998984667       -7.5403932473  MEMB      185             0.0000000000
     21487       185  SAPE      H15Y           30.3517604102       33.8212419228       -6.0644778361  MEMB      185             0.0000000000
     21488       185  SAPE      C316           30.3336619347       35.0465064585       -5.3085923226  MEMB      185             0.0000000000
     21489       185  SAPE      H16X           29.4946358748       35.0797052349       -4.5940231857  MEMB      185             0.0000000000
     21490       185  SAPE      H16Y           30.5942434929       35.9833701966       -5.8041234466  MEMB      185             0.0000000000
     21491       185  SAPE      C317           31.6040640976       34.3799554140       -4.6002890168  MEMB      185             0.0000000000
     21492       185  SAPE      H17X           32.1219519160       35.2493035071       -4.1726625655  MEMB      185             0.0000000000
     21493       185  SAPE      H17Y           32.3374950915       33.8547138383       -5.2648462749  MEMB      185             0.0000000000
     21494       185  SAPE      C318           31.2933933865       33.4420153218       -3.4514790161  MEMB      185             0.0000000000
     21495       185  SAPE      H18X           30.7229793143       32.5600334216       -3.7646214231  MEMB      185             0.0000000000
     21496       185  SAPE      H18Y           30.6835403859       33.9119008563       -2.6550218477  MEMB      185             0.0000000000
     21497       185  SAPE      H18Z           32.1839029124       32.9751167956       -2.9693481445  MEMB      185             0.0000000000
     21498       186  OSM       N             -31.6806516304      -26.1845184716      -23.1270301061  MEMB      186             0.0000000000
     21499       186  OSM       C15           -30.4163846380      -25.9457963649      -22.3392965112  MEMB      186             0.0000000000
     21500       186  OSM       H15A          -29.5351391874      -25.8715520139      -22.9786453778  MEMB      186             0.0000000000
     21501       186  OSM       H15B          -30.2342710123      -26.8155589298      -21.6863029634  MEMB      186             0.0000000000
     21502       186  OSM       H15C          -30.4504086236      -25.1134103119      -21.6623481634  MEMB      186             0.0000000000
     21503       186  OSM       C14           -31.9172544428      -25.1339907245      -24.1831300197  MEMB      186             0.0000000000
     21504       186  OSM       H14A          -32.7362309415      -25.4490915766      -24.8172529242  MEMB      186             0.0000000000
     21505       186  OSM       H14B          -31.0628365316      -24.9386424255      -24.8316993021  MEMB      186             0.0000000000
     21506       186  OSM       H14C          -32.2239952363      -24.2132367494      -23.7137177763  MEMB      186             0.0000000000
     21507       186  OSM       C13           -31.5257458563      -27.5152878007      -23.7686102189  MEMB      186             0.0000000000
     21508       186  OSM       H13A          -32.4142854989      -27.8086125327      -24.3036166581  MEMB      186             0.0000000000
     21509       186  OSM       H13B          -31.3206802536      -28.2568388123      -22.9819681343  MEMB      186             0.0000000000
     21510       186  OSM       H13C          -30.7061362698      -27.5850776380      -24.4804616953  MEMB      186             0.0000000000
     21511       186  OSM       C12           -32.9228475530      -26.2453242060      -22.2421405443  MEMB      186             0.0000000000
     21512       186  OSM       H12A          -33.7656412906      -26.3064045329      -22.9228678282  MEMB      186             0.0000000000
     21513       186  OSM       H12B          -32.9684394253      -25.3177777522      -21.7117794431  MEMB      186             0.0000000000
     21514       186  OSM       C11           -33.1693576461      -27.3899500776      -21.2068684524  MEMB      186             0.0000000000
     21515       186  OSM       H11A          -33.3081323107      -28.3432879313      -21.7436599812  MEMB      186             0.0000000000
     21516       186  OSM       H11B          -34.1519891611      -27.1950470502      -20.6962476790  MEMB      186             0.0000000000
     21517       186  OSM       P             -32.3958634127      -27.9475408666      -18.7635310535  MEMB      186             0.0000000000
     21518       186  OSM       O13           -33.1978880733      -29.1835839009      -18.7354906143  MEMB      186             0.0000000000
     21519       186  OSM       O14           -31.1510118757      -27.9134127127      -17.9715821225  MEMB      186             0.0000000000
     21520       186  OSM       O11           -33.3272215697      -26.7010501396      -18.3855905171  MEMB      186             0.0000000000
     21521       186  OSM       O12           -32.0896574691      -27.5515780525      -20.2878134045  MEMB      186             0.0000000000
     21522       186  OSM       C1S           -32.9092212227      -25.4885589937      -17.7545836665  MEMB      186             0.0000000000
     21523       186  OSM       H1S           -33.2316978459      -24.6739577922      -18.4306127954  MEMB      186             0.0000000000
     21524       186  OSM       H1T           -31.8210840521      -25.4251502629      -17.6006067560  MEMB      186             0.0000000000
     21525       186  OSM       NF            -33.0202907948      -26.3188275445      -15.4085498057  MEMB      186             0.0000000000
     21526       186  OSM       HNF           -33.6491501631      -27.1049827834      -15.4828581297  MEMB      186             0.0000000000
     21527       186  OSM       C2S           -33.4642831333      -25.2662378446      -16.2989143169  MEMB      186             0.0000000000
     21528       186  OSM       H2S           -33.1571215908      -24.2965533375      -15.8885238851  MEMB      186             0.0000000000
     21529       186  OSM       C3S           -34.9613359279      -25.2063326250      -16.4867999487  MEMB      186             0.0000000000
     21530       186  OSM       H3S           -35.2780653330      -25.9781765008      -17.1250251343  MEMB      186             0.0000000000
     21531       186  OSM       O3            -35.4332774659      -24.0446800212      -17.1695585227  MEMB      186             0.0000000000
     21532       186  OSM       HO3           -34.6221589768      -23.6010175652      -17.3826077313  MEMB      186             0.0000000000
     21533       186  OSM       C4S           -35.6530126131      -25.4141693761      -15.1514603615  MEMB      186             0.0000000000
     21534       186  OSM       H4S           -36.0621915363      -26.3869380662      -14.9186148606  MEMB      186             0.0000000000
     21535       186  OSM       C5S           -35.8714664991      -24.5792749179      -14.2116251401  MEMB      186             0.0000000000
     21536       186  OSM       H5S           -35.2662315702      -23.7628420587      -14.5212716826  MEMB      186             0.0000000000
     21537       186  OSM       C6S           -36.5454894719      -24.5372896602      -12.8153480192  MEMB      186             0.0000000000
     21538       186  OSM       H6S           -37.5783888992      -24.1051398498      -12.7575177643  MEMB      186             0.0000000000
     21539       186  OSM       H6T           -35.8728110748      -24.0992788958      -12.0407748335  MEMB      186             0.0000000000
     21540       186  OSM       C7S           -36.9435258376      -25.7307481971      -12.2263641345  MEMB      186             0.0000000000
     21541       186  OSM       H7S           -35.8971254000      -26.0128438289      -12.2755950610  MEMB      186             0.0000000000
     21542       186  OSM       H7T           -37.6111744816      -26.2430033285      -12.9340847631  MEMB      186             0.0000000000
     21543       186  OSM       C8S           -37.4152024472      -25.8529412292      -10.7977971548  MEMB      186             0.0000000000
     21544       186  OSM       H8S           -37.9597333610      -26.8188681206      -10.6830248483  MEMB      186             0.0000000000
     21545       186  OSM       H8T           -38.0776399191      -25.0065961151      -10.6492282905  MEMB      186             0.0000000000
     21546       186  OSM       C9S           -36.3800624093      -25.7567241226       -9.7078469973  MEMB      186             0.0000000000
     21547       186  OSM       H9S           -36.8855414512      -25.8908635063       -8.7173698682  MEMB      186             0.0000000000
     21548       186  OSM       H9T           -35.7766953669      -24.8382700728       -9.7838901222  MEMB      186             0.0000000000
     21549       186  OSM       C10S          -35.3134291073      -26.7477507463       -9.6870613440  MEMB      186             0.0000000000
     21550       186  OSM       H10S          -34.6288431335      -26.8943606037      -10.5339028938  MEMB      186             0.0000000000
     21551       186  OSM       H10T          -35.8235488831      -27.7275649019       -9.3137447811  MEMB      186             0.0000000000
     21552       186  OSM       C11S          -34.2986266789      -26.3598502656       -8.6935064455  MEMB      186             0.0000000000
     21553       186  OSM       H11S          -33.3459886281      -26.7661420066       -8.9044098472  MEMB      186             0.0000000000
     21554       186  OSM       H11T          -35.0638237062      -26.8038508204       -8.0935023017  MEMB      186             0.0000000000
     21555       186  OSM       C12S          -33.6307338820      -25.1302065782       -8.1560095993  MEMB      186             0.0000000000
     21556       186  OSM       H12S          -34.5724348590      -24.5984935770       -8.0754387198  MEMB      186             0.0000000000
     21557       186  OSM       H12T          -32.7992457565      -24.9380901980       -8.8722959057  MEMB      186             0.0000000000
     21558       186  OSM       C13S          -32.9983449360      -25.1001063458       -6.7501627474  MEMB      186             0.0000000000
     21559       186  OSM       H13S          -31.9723146059      -25.2134293722       -6.3669793427  MEMB      186             0.0000000000
     21560       186  OSM       H13T          -32.6817250655      -26.1601522825       -6.8506174890  MEMB      186             0.0000000000
     21561       186  OSM       C14S          -34.0418464375      -24.4515688061       -5.6916157554  MEMB      186             0.0000000000
     21562       186  OSM       H14S          -35.0835214543      -24.4631238636       -6.0617169413  MEMB      186             0.0000000000
     21563       186  OSM       H14T          -33.6175028425      -23.4352855183       -5.6786814742  MEMB      186             0.0000000000
     21564       186  OSM       C15S          -34.2092123731      -24.7686476927       -4.1590404557  MEMB      186             0.0000000000
     21565       186  OSM       H15S          -34.7204644740      -25.7137641111       -3.8186011039  MEMB      186             0.0000000000
     21566       186  OSM       H15T          -34.9497220571      -24.2030719124       -3.5721121577  MEMB      186             0.0000000000
     21567       186  OSM       C16S          -32.8060223632      -24.6995912918       -3.6188227067  MEMB      186             0.0000000000
     21568       186  OSM       H16S          -32.2366777453      -23.8004583341       -3.7949820613  MEMB      186             0.0000000000
     21569       186  OSM       H16T          -32.0305749586      -25.4639958044       -3.8358289183  MEMB      186             0.0000000000
     21570       186  OSM       C17S          -33.0382645632      -24.8393997797       -2.2513992493  MEMB      186             0.0000000000
     21571       186  OSM       H17S          -33.2526455912      -25.9107111321       -2.3254551765  MEMB      186             0.0000000000
     21572       186  OSM       H17T          -33.9634459628      -24.6148709515       -1.7212650644  MEMB      186             0.0000000000
     21573       186  OSM       C18S          -31.8318199531      -24.5004713807       -1.5096172045  MEMB      186             0.0000000000
     21574       186  OSM       H18S          -31.9993002469      -24.4944864504       -0.4396003584  MEMB      186             0.0000000000
     21575       186  OSM       H18T          -31.4569554630      -23.4741118176       -1.4874462856  MEMB      186             0.0000000000
     21576       186  OSM       H18U          -31.0942631162      -25.3514696844       -1.5512780283  MEMB      186             0.0000000000
     21577       186  OSM       C1F           -31.7697250996      -26.5728184319      -15.1172159433  MEMB      186             0.0000000000
     21578       186  OSM       OF            -30.9166431600      -25.7501671231      -15.3796468804  MEMB      186             0.0000000000
     21579       186  OSM       C2F           -31.4160642880      -27.8854032669      -14.5028467246  MEMB      186             0.0000000000
     21580       186  OSM       H2F           -31.0687407051      -28.6145198713      -15.2651950249  MEMB      186             0.0000000000
     21581       186  OSM       H2G           -32.1672368171      -28.3499002706      -13.8593953257  MEMB      186             0.0000000000
     21582       186  OSM       C3F           -30.4295034237      -27.6765066140      -13.3817077295  MEMB      186             0.0000000000
     21583       186  OSM       H3F           -29.4766665576      -27.2935004762      -13.7874321396  MEMB      186             0.0000000000
     21584       186  OSM       H3G           -30.2769504351      -28.7313814508      -13.0280327505  MEMB      186             0.0000000000
     21585       186  OSM       C4F           -30.9447004353      -26.7663332949      -12.2231856264  MEMB      186             0.0000000000
     21586       186  OSM       H4F           -31.6532396793      -27.3548747836      -11.6104674903  MEMB      186             0.0000000000
     21587       186  OSM       H4G           -31.4140278608      -25.8289717421      -12.5524313050  MEMB      186             0.0000000000
     21588       186  OSM       C5F           -29.8732261606      -26.2681203940      -11.3133414815  MEMB      186             0.0000000000
     21589       186  OSM       H5F           -30.1277533207      -25.6766982937      -10.4098066393  MEMB      186             0.0000000000
     21590       186  OSM       H5G           -29.0772331234      -25.7332813830      -11.9145706057  MEMB      186             0.0000000000
     21591       186  OSM       C6F           -29.3311893455      -27.4940699282      -10.7521868212  MEMB      186             0.0000000000
     21592       186  OSM       H6F           -28.4622442730      -26.9722355206      -10.2781643643  MEMB      186             0.0000000000
     21593       186  OSM       H6G           -29.0692862005      -28.1205870222      -11.6069317110  MEMB      186             0.0000000000
     21594       186  OSM       C7F           -30.0086286403      -28.5725162048       -9.8887360079  MEMB      186             0.0000000000
     21595       186  OSM       H7F           -30.8984533030      -28.9719063461      -10.3234592152  MEMB      186             0.0000000000
     21596       186  OSM       H7G           -30.3798704237      -27.8853118890       -9.1103161824  MEMB      186             0.0000000000
     21597       186  OSM       C8F           -29.1680996782      -29.8515752066       -9.4006437687  MEMB      186             0.0000000000
     21598       186  OSM       H8F           -28.2062564020      -29.7888197645       -8.8566855805  MEMB      186             0.0000000000
     21599       186  OSM       H8G           -28.8282117976      -30.4403379007      -10.2778696745  MEMB      186             0.0000000000
     21600       186  OSM       C9F           -29.8801622557      -30.5656863926       -8.3211994305  MEMB      186             0.0000000000
     21601       186  OSM       H9F           -30.1703254746      -31.5365753479       -8.7089536474  MEMB      186             0.0000000000
     21602       186  OSM       C10F          -29.9586129621      -30.3744306666       -6.9797236179  MEMB      186             0.0000000000
     21603       186  OSM       H10F          -30.5895405503      -31.0545710188       -6.4105570158  MEMB      186             0.0000000000
     21604       186  OSM       C11F          -29.4147167487      -29.4268135581       -5.9713223067  MEMB      186             0.0000000000
     21605       186  OSM       H11F          -28.9705861508      -28.5591643212       -6.2573019527  MEMB      186             0.0000000000
     21606       186  OSM       H11G          -28.5547026469      -29.7874479826       -5.3957658280  MEMB      186             0.0000000000
     21607       186  OSM       C12F          -30.3808212764      -28.5372497402       -5.3145383360  MEMB      186             0.0000000000
     21608       186  OSM       H12F          -31.1101579032      -28.2220637925       -6.0824442824  MEMB      186             0.0000000000
     21609       186  OSM       H12G          -30.0205753721      -27.4777548210       -5.0638483704  MEMB      186             0.0000000000
     21610       186  OSM       C13F          -30.7555392852      -29.4172540866       -4.0691151628  MEMB      186             0.0000000000
     21611       186  OSM       H13F          -30.2262632540      -30.3622018019       -4.0412892044  MEMB      186             0.0000000000
     21612       186  OSM       H13G          -31.7728155323      -29.6920885287       -3.9037569917  MEMB      186             0.0000000000
     21613       186  OSM       C14F          -30.5819472391      -28.6597836471       -2.8122953981  MEMB      186             0.0000000000
     21614       186  OSM       H14F          -30.7708556544      -27.5880896086       -2.8851570213  MEMB      186             0.0000000000
     21615       186  OSM       H14G          -29.7456512702      -28.5426339613       -3.4011715295  MEMB      186             0.0000000000
     21616       186  OSM       C15F          -30.3852245257      -29.3384362385       -1.4312956645  MEMB      186             0.0000000000
     21617       186  OSM       H15F          -30.0944694698      -30.3685335460       -1.4943605418  MEMB      186             0.0000000000
     21618       186  OSM       H15G          -31.4178443864      -29.6034156482       -1.2449954400  MEMB      186             0.0000000000
     21619       186  OSM       C16F          -29.7633548741      -28.6204156405       -0.1831586096  MEMB      186             0.0000000000
     21620       186  OSM       H16F          -29.9713584607      -27.5370731382        0.0622452455  MEMB      186             0.0000000000
     21621       186  OSM       H16G          -28.6426679794      -28.6712049204       -0.3063907239  MEMB      186             0.0000000000
     21622       186  OSM       C17F          -29.9244979043      -29.3220109181        1.0592230185  MEMB      186             0.0000000000
     21623       186  OSM       H17F          -29.0681016025      -28.8811887349        1.4550818054  MEMB      186             0.0000000000
     21624       186  OSM       H17G          -29.6396093015      -30.3773702596        0.9596236143  MEMB      186             0.0000000000
     21625       186  OSM       C18F          -31.1060823953      -28.9133765237        1.8661987085  MEMB      186             0.0000000000
     21626       186  OSM       H18F          -32.0180597068      -29.2154601366        1.3428670577  MEMB      186             0.0000000000
     21627       186  OSM       H18G          -31.1510875597      -27.8998190719        2.3078903030  MEMB      186             0.0000000000
     21628       186  OSM       H18H          -31.0779844506      -29.5139421431        2.7017053608  MEMB      186             0.0000000000
     21629       187  CHL1      C3            -22.3290101082       35.7131707007      -17.3443613648  MEMB      187             0.0000000000
     21630       187  CHL1      H3            -22.1404030355       34.6259303104      -17.1874458415  MEMB      187             0.0000000000
     21631       187  CHL1      O3            -22.3164435317       35.9444562004      -18.7388912009  MEMB      187             0.0000000000
     21632       187  CHL1      H3'           -23.0431525069       35.3825555422      -19.0490809833  MEMB      187             0.0000000000
     21633       187  CHL1      C4            -23.7203438027       36.0488399483      -16.7956099389  MEMB      187             0.0000000000
     21634       187  CHL1      H4A           -23.9780496288       37.0660338015      -17.1800583494  MEMB      187             0.0000000000
     21635       187  CHL1      H4B           -24.4783087518       35.3738707693      -17.2393388141  MEMB      187             0.0000000000
     21636       187  CHL1      C5            -23.7406684661       35.9200898140      -15.2824272851  MEMB      187             0.0000000000
     21637       187  CHL1      C6            -24.4869803345       34.9902622424      -14.6829247903  MEMB      187             0.0000000000
     21638       187  CHL1      H6            -25.0338242857       34.2750828029      -15.3107348456  MEMB      187             0.0000000000
     21639       187  CHL1      C7            -24.5710899903       34.8019223628      -13.2013173429  MEMB      187             0.0000000000
     21640       187  CHL1      H7A           -25.6174828487       34.7002497985      -12.8531762123  MEMB      187             0.0000000000
     21641       187  CHL1      H7B           -24.1571259513       33.8107111102      -13.0290657117  MEMB      187             0.0000000000
     21642       187  CHL1      C8            -23.9224314674       35.9611774851      -12.3754485724  MEMB      187             0.0000000000
     21643       187  CHL1      H8            -24.6591645945       36.7853969635      -12.3530628680  MEMB      187             0.0000000000
     21644       187  CHL1      C14           -23.6447683401       35.5904397476      -10.9238540507  MEMB      187             0.0000000000
     21645       187  CHL1      H14           -22.7469886786       34.9641885313      -11.0738822917  MEMB      187             0.0000000000
     21646       187  CHL1      C15           -24.7064677244       34.8188305735      -10.1080688637  MEMB      187             0.0000000000
     21647       187  CHL1      H15A          -25.7546893833       35.1156924132      -10.2089480326  MEMB      187             0.0000000000
     21648       187  CHL1      H15B          -24.7251964454       33.7839646464      -10.5065384000  MEMB      187             0.0000000000
     21649       187  CHL1      C16           -24.1892334994       34.9648857881       -8.6290782973  MEMB      187             0.0000000000
     21650       187  CHL1      H16A          -24.9889989458       35.4114593032       -8.0246045820  MEMB      187             0.0000000000
     21651       187  CHL1      H16B          -23.9170905158       34.0045885686       -8.1457179389  MEMB      187             0.0000000000
     21652       187  CHL1      C17           -22.9179325530       35.8951674718       -8.6184285991  MEMB      187             0.0000000000
     21653       187  CHL1      H17           -21.9973280078       35.2750488735       -8.7223025900  MEMB      187             0.0000000000
     21654       187  CHL1      C13           -23.0713509760       36.6490304554       -9.9816059918  MEMB      187             0.0000000000
     21655       187  CHL1      C18           -24.0653262982       37.7795056918       -9.8076260006  MEMB      187             0.0000000000
     21656       187  CHL1      H18A          -23.6202519181       38.5607364171       -9.1617262819  MEMB      187             0.0000000000
     21657       187  CHL1      H18B          -24.2892549459       38.2301034848      -10.7930681941  MEMB      187             0.0000000000
     21658       187  CHL1      H18C          -24.9950445954       37.4016337135       -9.3470636744  MEMB      187             0.0000000000
     21659       187  CHL1      C12           -21.8045039383       37.1632308770      -10.6332798123  MEMB      187             0.0000000000
     21660       187  CHL1      H12A          -21.3712783619       38.0058322638      -10.0563345110  MEMB      187             0.0000000000
     21661       187  CHL1      H12B          -21.1705518465       36.2637229705      -10.5728485260  MEMB      187             0.0000000000
     21662       187  CHL1      C11           -21.9202970658       37.5520220390      -12.1265601841  MEMB      187             0.0000000000
     21663       187  CHL1      H11A          -22.5257353822       38.4731894015      -12.1604518797  MEMB      187             0.0000000000
     21664       187  CHL1      H11B          -20.9037970114       37.8053691986      -12.5138821447  MEMB      187             0.0000000000
     21665       187  CHL1      C9            -22.6102484916       36.4579349610      -13.0023863378  MEMB      187             0.0000000000
     21666       187  CHL1      H9            -21.9023757778       35.5923350474      -12.9575074958  MEMB      187             0.0000000000
     21667       187  CHL1      C10           -22.7384395647       36.7847814406      -14.5158617730  MEMB      187             0.0000000000
     21668       187  CHL1      C19           -23.1452442479       38.2709484959      -14.6744345598  MEMB      187             0.0000000000
     21669       187  CHL1      H19A          -22.2496307799       38.9121894342      -14.5636243258  MEMB      187             0.0000000000
     21670       187  CHL1      H19B          -23.6164047134       38.5214391563      -15.6487237834  MEMB      187             0.0000000000
     21671       187  CHL1      H19C          -23.8658307283       38.5310073768      -13.8723174450  MEMB      187             0.0000000000
     21672       187  CHL1      C1            -21.3556333500       36.4369706318      -15.1306843694  MEMB      187             0.0000000000
     21673       187  CHL1      H1A           -20.5918393662       37.0773848682      -14.6452541079  MEMB      187             0.0000000000
     21674       187  CHL1      H1B           -21.1080922690       35.3775091431      -14.8707325542  MEMB      187             0.0000000000
     21675       187  CHL1      C2            -21.2615807719       36.5735436267      -16.6553109440  MEMB      187             0.0000000000
     21676       187  CHL1      H2A           -20.2469267083       36.3197307804      -17.0326313708  MEMB      187             0.0000000000
     21677       187  CHL1      H2B           -21.4364047467       37.6454492897      -16.8801160076  MEMB      187             0.0000000000
     21678       187  CHL1      C20           -22.7533659011       36.6761793554       -7.2634170176  MEMB      187             0.0000000000
     21679       187  CHL1      H20           -23.6779830817       37.2769833819       -7.1332503494  MEMB      187             0.0000000000
     21680       187  CHL1      C21           -21.5717431499       37.6601865717       -7.2444204456  MEMB      187             0.0000000000
     21681       187  CHL1      H21A          -21.6911733035       38.4461932313       -8.0114593943  MEMB      187             0.0000000000
     21682       187  CHL1      H21B          -20.6066207968       37.1348211837       -7.3809994814  MEMB      187             0.0000000000
     21683       187  CHL1      H21C          -21.5363892344       38.1667323670       -6.2547738792  MEMB      187             0.0000000000
     21684       187  CHL1      C22           -22.6696617497       35.8271462677       -5.9578891338  MEMB      187             0.0000000000
     21685       187  CHL1      H22A          -22.5640167710       34.7960367352       -6.2648850785  MEMB      187             0.0000000000
     21686       187  CHL1      H22B          -21.8143660620       36.0736618272       -5.2830007943  MEMB      187             0.0000000000
     21687       187  CHL1      C23           -23.9304339114       35.9421399430       -5.1072340606  MEMB      187             0.0000000000
     21688       187  CHL1      H23A          -23.9222346137       36.9405080183       -4.6192569491  MEMB      187             0.0000000000
     21689       187  CHL1      H23B          -24.7884377504       35.8702324235       -5.8043819637  MEMB      187             0.0000000000
     21690       187  CHL1      C24           -24.1216546745       34.8550286136       -4.0536526801  MEMB      187             0.0000000000
     21691       187  CHL1      H24A          -24.6834200055       34.0032990613       -4.5095479969  MEMB      187             0.0000000000
     21692       187  CHL1      H24B          -23.1534490981       34.4364191441       -3.7707005792  MEMB      187             0.0000000000
     21693       187  CHL1      C25           -24.8246770395       35.3959300022       -2.7963078507  MEMB      187             0.0000000000
     21694       187  CHL1      H25           -24.9823276327       34.5291809759       -2.1503511561  MEMB      187             0.0000000000
     21695       187  CHL1      C26           -24.0272920679       36.3691194616       -1.9089596377  MEMB      187             0.0000000000
     21696       187  CHL1      H26A          -24.6179208716       36.5978324365       -0.9944261259  MEMB      187             0.0000000000
     21697       187  CHL1      H26B          -23.0690785045       35.9400991429       -1.5593646421  MEMB      187             0.0000000000
     21698       187  CHL1      H26C          -23.8421499492       37.3190768106       -2.4395111740  MEMB      187             0.0000000000
     21699       187  CHL1      C27           -26.1878634871       35.9987849444       -3.1458454705  MEMB      187             0.0000000000
     21700       187  CHL1      H27A          -26.8195662686       35.2215155227       -3.6219176447  MEMB      187             0.0000000000
     21701       187  CHL1      H27B          -26.7105166553       36.3171461027       -2.2135462753  MEMB      187             0.0000000000
     21702       187  CHL1      H27C          -26.1152096755       36.8348402634       -3.8502295170  MEMB      187             0.0000000000
     21703       188  OSM       N             -37.4840111001       27.1666283903      -21.4043368409  MEMB      188             0.0000000000
     21704       188  OSM       C15           -37.0071439470       26.1202962666      -20.4059633691  MEMB      188             0.0000000000
     21705       188  OSM       H15A          -37.5796529899       25.2035911808      -20.3655501353  MEMB      188             0.0000000000
     21706       188  OSM       H15B          -36.9508696935       26.5245442833      -19.3973261046  MEMB      188             0.0000000000
     21707       188  OSM       H15C          -35.9549169554       25.8746130451      -20.6028590495  MEMB      188             0.0000000000
     21708       188  OSM       C14           -37.0855303137       26.8517145677      -22.7882140888  MEMB      188             0.0000000000
     21709       188  OSM       H14A          -36.0079887826       26.7650871545      -22.8527917458  MEMB      188             0.0000000000
     21710       188  OSM       H14B          -37.4202263719       27.6477203147      -23.4487746090  MEMB      188             0.0000000000
     21711       188  OSM       H14C          -37.5410098613       25.9281616679      -23.1429559490  MEMB      188             0.0000000000
     21712       188  OSM       C13           -38.9018330255       27.2305145462      -21.4954652363  MEMB      188             0.0000000000
     21713       188  OSM       H13A          -39.2194597234       27.5248141800      -20.5228043024  MEMB      188             0.0000000000
     21714       188  OSM       H13B          -39.2372576105       26.2044791405      -21.6783322048  MEMB      188             0.0000000000
     21715       188  OSM       H13C          -39.3984405010       27.8735309106      -22.2167543845  MEMB      188             0.0000000000
     21716       188  OSM       C12           -37.0387538430       28.5184013860      -20.9651822026  MEMB      188             0.0000000000
     21717       188  OSM       H12A          -37.1580839194       28.5851144313      -19.8952312658  MEMB      188             0.0000000000
     21718       188  OSM       H12B          -37.7385116837       29.2374387742      -21.3774832147  MEMB      188             0.0000000000
     21719       188  OSM       C11           -35.6187369070       28.9145308794      -21.3630796410  MEMB      188             0.0000000000
     21720       188  OSM       H11A          -35.3589975063       29.8017036250      -20.7405928753  MEMB      188             0.0000000000
     21721       188  OSM       H11B          -35.5911739363       29.2391694473      -22.4215066506  MEMB      188             0.0000000000
     21722       188  OSM       P             -33.2626428424       28.1569290104      -20.6090801157  MEMB      188             0.0000000000
     21723       188  OSM       O13           -32.4106766559       27.1704475655      -21.2846496907  MEMB      188             0.0000000000
     21724       188  OSM       O14           -33.0164671480       29.6113937139      -20.7398419974  MEMB      188             0.0000000000
     21725       188  OSM       O11           -33.4250494180       27.7857450459      -19.0868977478  MEMB      188             0.0000000000
     21726       188  OSM       O12           -34.7089854926       27.8387095452      -21.1955060781  MEMB      188             0.0000000000
     21727       188  OSM       C1S           -34.6853598964       27.5185103981      -18.5102691176  MEMB      188             0.0000000000
     21728       188  OSM       H1S           -35.0644097506       26.5687836657      -18.9088886260  MEMB      188             0.0000000000
     21729       188  OSM       H1T           -35.4127711000       28.3420461145      -18.6703303012  MEMB      188             0.0000000000
     21730       188  OSM       NF            -35.6015548117       26.6721977524      -16.4166398990  MEMB      188             0.0000000000
     21731       188  OSM       HNF           -36.1423386754       27.0659608371      -15.6779060062  MEMB      188             0.0000000000
     21732       188  OSM       C2S           -34.5255922859       27.3849400893      -17.0015528157  MEMB      188             0.0000000000
     21733       188  OSM       H2S           -33.5759095427       26.7880557118      -16.8578628046  MEMB      188             0.0000000000
     21734       188  OSM       C3S           -34.5258292707       28.7650000871      -16.3967232541  MEMB      188             0.0000000000
     21735       188  OSM       H3S           -35.4132627602       29.3880808097      -16.5038271100  MEMB      188             0.0000000000
     21736       188  OSM       O3            -33.7325599936       29.6584436567      -17.0626208308  MEMB      188             0.0000000000
     21737       188  OSM       HO3           -33.0893001937       29.0923426418      -17.5463958562  MEMB      188             0.0000000000
     21738       188  OSM       C4S           -34.3593941398       28.4598530751      -14.9517218567  MEMB      188             0.0000000000
     21739       188  OSM       H4S           -33.5615151272       27.7167247564      -14.9055316033  MEMB      188             0.0000000000
     21740       188  OSM       C5S           -34.9277478601       28.9985349861      -13.8498162411  MEMB      188             0.0000000000
     21741       188  OSM       H5S           -35.4423930216       29.9467405643      -14.0511908760  MEMB      188             0.0000000000
     21742       188  OSM       C6S           -34.7559586678       28.6235781302      -12.3569298934  MEMB      188             0.0000000000
     21743       188  OSM       H6S           -35.5910635107       29.0901507655      -11.8385732489  MEMB      188             0.0000000000
     21744       188  OSM       H6T           -34.1269427515       29.1404916075      -11.6256455638  MEMB      188             0.0000000000
     21745       188  OSM       C7S           -34.3326427686       27.1906002021      -11.9998822514  MEMB      188             0.0000000000
     21746       188  OSM       H7S           -33.6397919553       26.7410082949      -12.7454782951  MEMB      188             0.0000000000
     21747       188  OSM       H7T           -35.2938501775       26.6995786026      -12.1335494096  MEMB      188             0.0000000000
     21748       188  OSM       C8S           -33.8681932685       26.8939960644      -10.5426938962  MEMB      188             0.0000000000
     21749       188  OSM       H8S           -32.9630024804       27.2516396572      -10.0776966923  MEMB      188             0.0000000000
     21750       188  OSM       H8T           -33.4860765364       25.8645495867      -10.5515703268  MEMB      188             0.0000000000
     21751       188  OSM       C9S           -34.8065411359       27.3936561964       -9.4508661745  MEMB      188             0.0000000000
     21752       188  OSM       H9S           -35.6822242891       26.7979402976       -9.7201418599  MEMB      188             0.0000000000
     21753       188  OSM       H9T           -35.0653519583       28.4690662388       -9.4902506553  MEMB      188             0.0000000000
     21754       188  OSM       C10S          -34.3034795097       27.1303466284       -8.0504377423  MEMB      188             0.0000000000
     21755       188  OSM       H10S          -34.9256820890       27.5311101609       -7.2521515923  MEMB      188             0.0000000000
     21756       188  OSM       H10T          -33.4804781749       27.6845082358       -7.6338137399  MEMB      188             0.0000000000
     21757       188  OSM       C11S          -33.9834004797       25.6998450346       -7.9668337595  MEMB      188             0.0000000000
     21758       188  OSM       H11S          -33.3887577366       25.2755640446       -8.7579754331  MEMB      188             0.0000000000
     21759       188  OSM       H11T          -34.8552580646       25.0732666595       -8.1874307809  MEMB      188             0.0000000000
     21760       188  OSM       C12S          -33.4711169270       25.4599032194       -6.6187833726  MEMB      188             0.0000000000
     21761       188  OSM       H12S          -32.5129882906       25.8414421079       -6.1770979024  MEMB      188             0.0000000000
     21762       188  OSM       H12T          -33.4342988952       24.3523747769       -6.7282146468  MEMB      188             0.0000000000
     21763       188  OSM       C13S          -34.5571222452       25.7145464182       -5.6623869608  MEMB      188             0.0000000000
     21764       188  OSM       H13S          -35.1584382496       24.9733567894       -6.2531849983  MEMB      188             0.0000000000
     21765       188  OSM       H13T          -35.4868623776       26.2462667256       -5.6357996752  MEMB      188             0.0000000000
     21766       188  OSM       C14S          -34.0527466733       25.1325357627       -4.4238394466  MEMB      188             0.0000000000
     21767       188  OSM       H14S          -33.2367853221       24.4477139807       -4.8058080725  MEMB      188             0.0000000000
     21768       188  OSM       H14T          -34.9557897381       24.7389220918       -3.8040678235  MEMB      188             0.0000000000
     21769       188  OSM       C15S          -33.4913746466       25.5650050017       -3.3079267409  MEMB      188             0.0000000000
     21770       188  OSM       H15S          -34.5115926827       26.1617581301       -3.2974305155  MEMB      188             0.0000000000
     21771       188  OSM       H15T          -32.6352583746       26.0650847287       -3.7294662765  MEMB      188             0.0000000000
     21772       188  OSM       C16S          -33.1553338101       24.9968185801       -1.8625693054  MEMB      188             0.0000000000
     21773       188  OSM       H16S          -32.4479038814       24.2547358878       -1.9265315045  MEMB      188             0.0000000000
     21774       188  OSM       H16T          -34.0117216769       24.7606495631       -1.1889894952  MEMB      188             0.0000000000
     21775       188  OSM       C17S          -32.3133235762       25.7759916508       -0.8872411988  MEMB      188             0.0000000000
     21776       188  OSM       H17S          -33.1789714780       25.9598768625       -0.3252450411  MEMB      188             0.0000000000
     21777       188  OSM       H17T          -31.7798880682       26.6288381350       -1.3043078909  MEMB      188             0.0000000000
     21778       188  OSM       C18S          -32.2635010206       25.7467722978        0.5917131964  MEMB      188             0.0000000000
     21779       188  OSM       H18S          -33.0075471673       25.0055635327        1.0682408050  MEMB      188             0.0000000000
     21780       188  OSM       H18T          -32.2018137925       26.7140083092        1.0952129682  MEMB      188             0.0000000000
     21781       188  OSM       H18U          -31.2786262843       25.5113956435        0.2606354443  MEMB      188             0.0000000000
     21782       188  OSM       C1F           -35.7569778777       25.4501791289      -16.7522759645  MEMB      188             0.0000000000
     21783       188  OSM       OF            -34.9606280588       24.8389022250      -17.4386827304  MEMB      188             0.0000000000
     21784       188  OSM       C2F           -37.0198929918       24.9312960849      -16.3437675742  MEMB      188             0.0000000000
     21785       188  OSM       H2F           -37.2891864946       24.0983584829      -17.0078142189  MEMB      188             0.0000000000
     21786       188  OSM       H2G           -37.6461729804       25.7005461618      -16.7799822472  MEMB      188             0.0000000000
     21787       188  OSM       C3F           -37.1625159030       24.4930512149      -14.8217376387  MEMB      188             0.0000000000
     21788       188  OSM       H3F           -37.0928027629       23.4371438375      -14.7726572403  MEMB      188             0.0000000000
     21789       188  OSM       H3G           -38.1847903595       24.3155958983      -14.5852920358  MEMB      188             0.0000000000
     21790       188  OSM       C4F           -37.1847239932       25.3243906583      -13.5531340692  MEMB      188             0.0000000000
     21791       188  OSM       H4F           -37.5661225677       26.3331306795      -13.6018457233  MEMB      188             0.0000000000
     21792       188  OSM       H4G           -36.2019837407       25.3028917206      -13.1144810975  MEMB      188             0.0000000000
     21793       188  OSM       C5F           -38.2896198762       24.8652331955      -12.6431168301  MEMB      188             0.0000000000
     21794       188  OSM       H5F           -37.8569460429       23.8668993828      -12.4830420337  MEMB      188             0.0000000000
     21795       188  OSM       H5G           -39.3399291638       24.7097804658      -13.0273581768  MEMB      188             0.0000000000
     21796       188  OSM       C6F           -38.3073389260       25.6226027183      -11.3818502594  MEMB      188             0.0000000000
     21797       188  OSM       H6F           -37.3406346808       25.3605430970      -10.9368393187  MEMB      188             0.0000000000
     21798       188  OSM       H6G           -39.2191003476       25.3684704493      -10.7885830843  MEMB      188             0.0000000000
     21799       188  OSM       C7F           -38.2284499697       27.0849265589      -11.3428341478  MEMB      188             0.0000000000
     21800       188  OSM       H7F           -38.8667589256       27.1528175798      -12.1519996204  MEMB      188             0.0000000000
     21801       188  OSM       H7G           -37.4506302100       27.6375004187      -11.8645515070  MEMB      188             0.0000000000
     21802       188  OSM       C8F           -38.6422541229       27.5706137432       -9.9812358437  MEMB      188             0.0000000000
     21803       188  OSM       H8F           -37.7083049245       27.7278761408       -9.4649046686  MEMB      188             0.0000000000
     21804       188  OSM       H8G           -39.3455819689       27.0246318312       -9.3214054249  MEMB      188             0.0000000000
     21805       188  OSM       C9F           -39.1738724154       28.8356180591      -10.3077120391  MEMB      188             0.0000000000
     21806       188  OSM       H9F           -40.2306766356       28.8985998189      -10.6833941653  MEMB      188             0.0000000000
     21807       188  OSM       C10F          -38.6629808552       29.8704793012       -9.6753752730  MEMB      188             0.0000000000
     21808       188  OSM       H10F          -39.3082837892       30.5976254283       -9.3186460192  MEMB      188             0.0000000000
     21809       188  OSM       C11F          -37.7145659824       30.2441641419       -8.6676942749  MEMB      188             0.0000000000
     21810       188  OSM       H11F          -37.7283799373       31.3339210869       -8.7728132343  MEMB      188             0.0000000000
     21811       188  OSM       H11G          -36.9838305059       29.5655420470       -8.9475636286  MEMB      188             0.0000000000
     21812       188  OSM       C12F          -37.9316570045       30.1915841021       -7.1614197357  MEMB      188             0.0000000000
     21813       188  OSM       H12F          -38.3393620159       29.1645901043       -6.8201557805  MEMB      188             0.0000000000
     21814       188  OSM       H12G          -38.5554822940       31.0821612236       -6.8245707808  MEMB      188             0.0000000000
     21815       188  OSM       C13F          -36.8603856385       30.1471770275       -6.3727600518  MEMB      188             0.0000000000
     21816       188  OSM       H13F          -36.3697864167       31.0957096907       -6.6424571901  MEMB      188             0.0000000000
     21817       188  OSM       H13G          -36.4098391906       29.1945910179       -6.7217544597  MEMB      188             0.0000000000
     21818       188  OSM       C14F          -37.4130134704       30.0645832727       -5.0179604095  MEMB      188             0.0000000000
     21819       188  OSM       H14F          -38.1199578302       29.2452706126       -4.7419307057  MEMB      188             0.0000000000
     21820       188  OSM       H14G          -37.9335315776       31.0204473613       -4.7316011892  MEMB      188             0.0000000000
     21821       188  OSM       C15F          -36.1495976625       29.9779576036       -4.3927517898  MEMB      188             0.0000000000
     21822       188  OSM       H15F          -35.1937701603       30.1974878657       -4.9381634859  MEMB      188             0.0000000000
     21823       188  OSM       H15G          -36.0251750384       28.8791244935       -4.1236129122  MEMB      188             0.0000000000
     21824       188  OSM       C16F          -36.4607212294       31.1520879366       -3.4629280981  MEMB      188             0.0000000000
     21825       188  OSM       H16F          -36.1548459084       32.1673879345       -3.2411129441  MEMB      188             0.0000000000
     21826       188  OSM       H16G          -35.2832168277       31.1804771191       -3.2843957877  MEMB      188             0.0000000000
     21827       188  OSM       C17F          -37.8126030249       30.7301458275       -2.3314549009  MEMB      188             0.0000000000
     21828       188  OSM       H17F          -38.5484627249       30.9711144827       -2.9604632956  MEMB      188             0.0000000000
     21829       188  OSM       H17G          -37.7580312417       31.5283749088       -1.5264244102  MEMB      188             0.0000000000
     21830       188  OSM       C18F          -38.0190161111       29.1597088690       -1.3420438721  MEMB      188             0.0000000000
     21831       188  OSM       H18F          -37.3481904489       28.6904512724       -0.6320757879  MEMB      188             0.0000000000
     21832       188  OSM       H18G          -37.7691278098       28.3225829263       -1.9220800622  MEMB      188             0.0000000000
     21833       188  OSM       H18H          -38.9054178175       28.8124503932       -0.8383436700  MEMB      188             0.0000000000
     21834       189  OSM       N              26.7685559657      -35.0019573672      -20.2110573166  MEMB      189             0.0000000000
     21835       189  OSM       C15            26.4933105460      -34.9395083809      -21.6232002444  MEMB      189             0.0000000000
     21836       189  OSM       H15A           26.4549286078      -35.9232111081      -22.0477660383  MEMB      189             0.0000000000
     21837       189  OSM       H15B           27.3157079787      -34.4334364497      -22.1574192502  MEMB      189             0.0000000000
     21838       189  OSM       H15C           25.5689889391      -34.4616153765      -21.8498126722  MEMB      189             0.0000000000
     21839       189  OSM       C14            26.4237758735      -33.6730720810      -19.7485224014  MEMB      189             0.0000000000
     21840       189  OSM       H14A           26.6286802601      -33.6107408449      -18.7155228781  MEMB      189             0.0000000000
     21841       189  OSM       H14B           25.4391146325      -33.2893428287      -19.9060111743  MEMB      189             0.0000000000
     21842       189  OSM       H14C           27.0697397278      -32.9343690506      -20.1946224349  MEMB      189             0.0000000000
     21843       189  OSM       C13            25.8439951793      -35.8733322975      -19.5019142310  MEMB      189             0.0000000000
     21844       189  OSM       H13A           24.8798681306      -35.4180203782      -19.6124683908  MEMB      189             0.0000000000
     21845       189  OSM       H13B           26.0792988373      -35.9143941803      -18.4440475586  MEMB      189             0.0000000000
     21846       189  OSM       H13C           25.7658626857      -36.8672871089      -19.8993742814  MEMB      189             0.0000000000
     21847       189  OSM       C12            28.1691124176      -35.5291680033      -19.9814331991  MEMB      189             0.0000000000
     21848       189  OSM       H12A           28.0588265551      -36.5900559971      -20.1650706193  MEMB      189             0.0000000000
     21849       189  OSM       H12B           28.4327021497      -35.4809861328      -18.9376679444  MEMB      189             0.0000000000
     21850       189  OSM       C11            29.3186650377      -35.2486890372      -20.9766620614  MEMB      189             0.0000000000
     21851       189  OSM       H11A           29.0978737313      -35.7653274590      -21.9043554311  MEMB      189             0.0000000000
     21852       189  OSM       H11B           30.3077179047      -35.6048547190      -20.6008550273  MEMB      189             0.0000000000
     21853       189  OSM       P              30.5211112758      -33.5775035370      -22.4270984163  MEMB      189             0.0000000000
     21854       189  OSM       O13            31.0887453570      -34.3369698303      -23.5275180765  MEMB      189             0.0000000000
     21855       189  OSM       O14            30.0010522718      -32.2569275705      -22.9499562777  MEMB      189             0.0000000000
     21856       189  OSM       O11            31.3296678687      -33.7531462771      -20.9453280781  MEMB      189             0.0000000000
     21857       189  OSM       O12            29.3349807266      -33.9911550086      -21.5286034275  MEMB      189             0.0000000000
     21858       189  OSM       C1S            31.4100891587      -33.3239356881      -19.4759949809  MEMB      189             0.0000000000
     21859       189  OSM       H1S            30.8147116537      -32.4627172596      -19.1305928815  MEMB      189             0.0000000000
     21860       189  OSM       H1T            32.4867287651      -33.1318001430      -19.2121465551  MEMB      189             0.0000000000
     21861       189  OSM       NF             30.9270220601      -32.7635721156      -16.9651303634  MEMB      189             0.0000000000
     21862       189  OSM       HNF            31.6417495455      -32.7825463224      -16.3038844700  MEMB      189             0.0000000000
     21863       189  OSM       C2S            30.9385085971      -33.7832266376      -18.1583266894  MEMB      189             0.0000000000
     21864       189  OSM       H2S            29.9420249586      -34.1288055601      -18.5165615711  MEMB      189             0.0000000000
     21865       189  OSM       C3S            32.0562575905      -34.7416610132      -18.0753351084  MEMB      189             0.0000000000
     21866       189  OSM       H3S            32.9045769564      -34.0741226515      -17.6822324906  MEMB      189             0.0000000000
     21867       189  OSM       O3             32.4787598068      -35.4010500677      -19.2958899985  MEMB      189             0.0000000000
     21868       189  OSM       HO3            32.0707130147      -34.8352843619      -20.0023581969  MEMB      189             0.0000000000
     21869       189  OSM       C4S            31.5524135387      -35.5312814236      -17.0703820452  MEMB      189             0.0000000000
     21870       189  OSM       H4S            30.4625811434      -35.6944813959      -17.1405280453  MEMB      189             0.0000000000
     21871       189  OSM       C5S            32.3265780502      -35.9146387311      -16.0786496342  MEMB      189             0.0000000000
     21872       189  OSM       H5S            33.3909502570      -35.7673478614      -16.0768796685  MEMB      189             0.0000000000
     21873       189  OSM       C6S            31.9041578403      -36.7365572952      -14.9965827836  MEMB      189             0.0000000000
     21874       189  OSM       H6S            32.2696245985      -37.7578489523      -15.2914603036  MEMB      189             0.0000000000
     21875       189  OSM       H6T            30.8195076612      -36.6192815212      -15.0791471311  MEMB      189             0.0000000000
     21876       189  OSM       C7S            31.9034757469      -36.4929795091      -13.4918762014  MEMB      189             0.0000000000
     21877       189  OSM       H7S            32.9500185545      -36.3325258421      -13.2252221054  MEMB      189             0.0000000000
     21878       189  OSM       H7T            31.5865736728      -37.4056503537      -12.9246327874  MEMB      189             0.0000000000
     21879       189  OSM       C8S            30.8667579321      -35.4071476880      -13.1773451199  MEMB      189             0.0000000000
     21880       189  OSM       H8S            29.8531913218      -35.7597125978      -13.4813278120  MEMB      189             0.0000000000
     21881       189  OSM       H8T            31.0865576316      -34.5297615242      -13.8119621776  MEMB      189             0.0000000000
     21882       189  OSM       C9S            30.8413356495      -34.9628249773      -11.7254923761  MEMB      189             0.0000000000
     21883       189  OSM       H9S            31.8436842319      -34.5365162196      -11.4985177927  MEMB      189             0.0000000000
     21884       189  OSM       H9T            30.6497421763      -35.8042392684      -11.0239856258  MEMB      189             0.0000000000
     21885       189  OSM       C10S           29.8820650352      -33.8118619648      -11.4528745950  MEMB      189             0.0000000000
     21886       189  OSM       H10S           28.8106229691      -34.0496236517      -11.6272659520  MEMB      189             0.0000000000
     21887       189  OSM       H10T           30.1577307420      -32.9753318508      -12.1305586496  MEMB      189             0.0000000000
     21888       189  OSM       C11S           30.0702766075      -33.3890339224      -10.0065148885  MEMB      189             0.0000000000
     21889       189  OSM       H11S           31.1032499273      -33.3194981909       -9.7271352923  MEMB      189             0.0000000000
     21890       189  OSM       H11T           29.7332826142      -34.1976166926       -9.3563337485  MEMB      189             0.0000000000
     21891       189  OSM       C12S           29.3182935085      -32.1267858686       -9.6972225365  MEMB      189             0.0000000000
     21892       189  OSM       H12S           28.3482431544      -32.6664931331       -9.6677974282  MEMB      189             0.0000000000
     21893       189  OSM       H12T           29.2711337950      -31.4110709061      -10.5454808139  MEMB      189             0.0000000000
     21894       189  OSM       C13S           29.7189249798      -31.3614465875       -8.3754419877  MEMB      189             0.0000000000
     21895       189  OSM       H13S           30.6114142818      -30.9018875242       -8.8291984598  MEMB      189             0.0000000000
     21896       189  OSM       H13T           29.8725168449      -32.1117681004       -7.5659945451  MEMB      189             0.0000000000
     21897       189  OSM       C14S           28.9986214849      -30.0765261059       -7.7726433681  MEMB      189             0.0000000000
     21898       189  OSM       H14S           28.0015080972      -30.2903213967       -7.3395676137  MEMB      189             0.0000000000
     21899       189  OSM       H14T           28.8874211765      -29.3169869209       -8.5677450676  MEMB      189             0.0000000000
     21900       189  OSM       C15S           29.3202750722      -29.4632792264       -6.4430095421  MEMB      189             0.0000000000
     21901       189  OSM       H15S           28.7373679906      -28.5565445125       -6.2470628097  MEMB      189             0.0000000000
     21902       189  OSM       H15T           30.3072723497      -29.0313640848       -6.6884088446  MEMB      189             0.0000000000
     21903       189  OSM       C16S           29.1287974675      -30.4474474676       -5.2239031487  MEMB      189             0.0000000000
     21904       189  OSM       H16S           29.6672844502      -31.4266824288       -5.3303443632  MEMB      189             0.0000000000
     21905       189  OSM       H16T           28.1073205460      -30.7344477739       -5.0418649134  MEMB      189             0.0000000000
     21906       189  OSM       C17S           29.6011610036      -29.8340862776       -3.9195371464  MEMB      189             0.0000000000
     21907       189  OSM       H17S           29.0008250731      -29.0022722766       -3.5507159463  MEMB      189             0.0000000000
     21908       189  OSM       H17T           30.4626655682      -29.2179273665       -4.2171268424  MEMB      189             0.0000000000
     21909       189  OSM       C18S           29.8729598056      -30.8510603273       -2.7771820696  MEMB      189             0.0000000000
     21910       189  OSM       H18S           30.6813327835      -31.5624661806       -3.0837370967  MEMB      189             0.0000000000
     21911       189  OSM       H18T           29.0228525695      -31.4323628891       -2.4323323498  MEMB      189             0.0000000000
     21912       189  OSM       H18U           30.2959378924      -30.2626437026       -1.9180624513  MEMB      189             0.0000000000
     21913       189  OSM       C1F            30.2675329619      -31.6938407027      -16.4549916379  MEMB      189             0.0000000000
     21914       189  OSM       OF             29.9374369833      -30.7674076568      -16.9768451863  MEMB      189             0.0000000000
     21915       189  OSM       C2F            29.7412674116      -31.3667783348      -15.2131555294  MEMB      189             0.0000000000
     21916       189  OSM       H2F            29.1183315833      -30.3900735765      -15.2202313565  MEMB      189             0.0000000000
     21917       189  OSM       H2G            30.6507571629      -30.8229945982      -14.8775939427  MEMB      189             0.0000000000
     21918       189  OSM       C3F            28.9960628449      -32.6749142722      -14.6910523805  MEMB      189             0.0000000000
     21919       189  OSM       H3F            29.0303370033      -32.0765863900      -13.7379609258  MEMB      189             0.0000000000
     21920       189  OSM       H3G            29.7186214643      -33.4365718520      -14.6350946958  MEMB      189             0.0000000000
     21921       189  OSM       C4F            27.5185969050      -33.4896642312      -15.0472217796  MEMB      189             0.0000000000
     21922       189  OSM       H4F            27.4248668907      -34.1704580000      -15.8766201118  MEMB      189             0.0000000000
     21923       189  OSM       H4G            26.6127544562      -33.1392141022      -15.6572085386  MEMB      189             0.0000000000
     21924       189  OSM       C5F            26.5593050050      -33.8115762032      -13.9293034057  MEMB      189             0.0000000000
     21925       189  OSM       H5F            25.4788643987      -33.7803348021      -14.2462591734  MEMB      189             0.0000000000
     21926       189  OSM       H5G            26.6485807022      -33.1880529632      -13.0264728765  MEMB      189             0.0000000000
     21927       189  OSM       C6F            26.9703794418      -35.1620160762      -13.7490595413  MEMB      189             0.0000000000
     21928       189  OSM       H6F            27.9489496656      -35.0070427262      -13.2490476711  MEMB      189             0.0000000000
     21929       189  OSM       H6G            27.1080843051      -35.6220828953      -14.7561927546  MEMB      189             0.0000000000
     21930       189  OSM       C7F            25.9352988863      -35.8436391672      -12.9502002183  MEMB      189             0.0000000000
     21931       189  OSM       H7F            24.9571629310      -35.8813860557      -13.5001644987  MEMB      189             0.0000000000
     21932       189  OSM       H7G            25.8327379557      -35.2458667178      -12.0302697819  MEMB      189             0.0000000000
     21933       189  OSM       C8F            26.4411389820      -37.2354977907      -12.7133643604  MEMB      189             0.0000000000
     21934       189  OSM       H8F            26.5415285777      -37.5965721583      -13.7612085937  MEMB      189             0.0000000000
     21935       189  OSM       H8G            25.6472843086      -37.8258040819      -12.2281944137  MEMB      189             0.0000000000
     21936       189  OSM       C9F            27.8089093415      -37.3957154415      -12.0977804055  MEMB      189             0.0000000000
     21937       189  OSM       H9F            28.5375888603      -37.6626199929      -12.8165760105  MEMB      189             0.0000000000
     21938       189  OSM       C10F           28.2272630018      -37.3633745917      -10.8433834861  MEMB      189             0.0000000000
     21939       189  OSM       H10F           29.2645235007      -37.5055937329      -10.5026986161  MEMB      189             0.0000000000
     21940       189  OSM       C11F           27.2989210656      -37.1357928133       -9.7752789949  MEMB      189             0.0000000000
     21941       189  OSM       H11F           27.4173490733      -37.8934387833       -9.0005763988  MEMB      189             0.0000000000
     21942       189  OSM       H11G           26.2260110051      -37.2012774643      -10.0805136377  MEMB      189             0.0000000000
     21943       189  OSM       C12F           27.6408808271      -35.7716579685       -9.2042203649  MEMB      189             0.0000000000
     21944       189  OSM       H12F           27.1841576681      -34.9864144482       -9.8657495356  MEMB      189             0.0000000000
     21945       189  OSM       H12G           28.5802721509      -35.4329936776       -8.7969045278  MEMB      189             0.0000000000
     21946       189  OSM       C13F           27.1792403815      -35.8377407637       -7.7879939289  MEMB      189             0.0000000000
     21947       189  OSM       H13F           27.1706770339      -36.6402462646       -7.0877458298  MEMB      189             0.0000000000
     21948       189  OSM       H13G           26.3258678840      -36.4391651595       -8.1714426736  MEMB      189             0.0000000000
     21949       189  OSM       C14F           27.2585093858      -34.4958028394       -6.9910107326  MEMB      189             0.0000000000
     21950       189  OSM       H14F           27.0068796309      -33.5569518824       -7.4491678617  MEMB      189             0.0000000000
     21951       189  OSM       H14G           28.2672300400      -34.2317406366       -6.6859924330  MEMB      189             0.0000000000
     21952       189  OSM       C15F           26.3485763684      -34.2593741354       -5.8497341590  MEMB      189             0.0000000000
     21953       189  OSM       H15F           25.3443657248      -33.6840571656       -6.2647984383  MEMB      189             0.0000000000
     21954       189  OSM       H15G           26.5512810765      -33.5745685127       -5.0514530592  MEMB      189             0.0000000000
     21955       189  OSM       C16F           26.6260006137      -35.2875183348       -4.6504785030  MEMB      189             0.0000000000
     21956       189  OSM       H16F           26.4072404371      -36.3718898808       -4.8062957949  MEMB      189             0.0000000000
     21957       189  OSM       H16G           25.8990879008      -35.1437764721       -3.7714165620  MEMB      189             0.0000000000
     21958       189  OSM       C17F           27.8030333267      -34.9335465689       -3.7932623115  MEMB      189             0.0000000000
     21959       189  OSM       H17F           27.5265711105      -33.9979193428       -3.2689080406  MEMB      189             0.0000000000
     21960       189  OSM       H17G           28.8280945602      -34.6682602967       -4.0568956032  MEMB      189             0.0000000000
     21961       189  OSM       C18F           28.0019102907      -36.1362922068       -2.9654611892  MEMB      189             0.0000000000
     21962       189  OSM       H18F           28.9637677927      -35.9197919036       -2.4657580419  MEMB      189             0.0000000000
     21963       189  OSM       H18G           28.0691928491      -37.0562074246       -3.5941719168  MEMB      189             0.0000000000
     21964       189  OSM       H18H           27.1312937573      -36.2229806979       -2.2904473853  MEMB      189             0.0000000000
     21965       190  CHL1      C3            -30.0425110256      -34.9316188937      -17.2781566498  MEMB      190             0.0000000000
     21966       190  CHL1      H3            -29.0119441816      -34.5439882259      -17.0964448399  MEMB      190             0.0000000000
     21967       190  CHL1      O3            -30.2673363994      -34.9983327663      -18.6737301634  MEMB      190             0.0000000000
     21968       190  CHL1      H3'           -30.2754668523      -34.0727698542      -18.9880936862  MEMB      190             0.0000000000
     21969       190  CHL1      C4            -30.1952069525      -36.3147134915      -16.6187638294  MEMB      190             0.0000000000
     21970       190  CHL1      H4A           -31.2378390759      -36.6476351960      -16.8314378319  MEMB      190             0.0000000000
     21971       190  CHL1      H4B           -29.5195216482      -37.0343422152      -17.1191066754  MEMB      190             0.0000000000
     21972       190  CHL1      C5            -29.9534594749      -36.2610815750      -15.1178573350  MEMB      190             0.0000000000
     21973       190  CHL1      C6            -28.9835181807      -36.9506760051      -14.4870709893  MEMB      190             0.0000000000
     21974       190  CHL1      H6            -28.3327709467      -37.5890271412      -15.1009568024  MEMB      190             0.0000000000
     21975       190  CHL1      C7            -28.7837500465      -36.9740191887      -12.9763869109  MEMB      190             0.0000000000
     21976       190  CHL1      H7A           -28.8038501313      -38.0170916425      -12.5909122356  MEMB      190             0.0000000000
     21977       190  CHL1      H7B           -27.8014971272      -36.5391245846      -12.6825963040  MEMB      190             0.0000000000
     21978       190  CHL1      C8            -29.8863396230      -36.2163474261      -12.1815949516  MEMB      190             0.0000000000
     21979       190  CHL1      H8            -30.7328322996      -36.9231331060      -12.0535461268  MEMB      190             0.0000000000
     21980       190  CHL1      C14           -29.4061368561      -35.7652069570      -10.8039043443  MEMB      190             0.0000000000
     21981       190  CHL1      H14           -28.5515478333      -35.0581924855      -10.9611342089  MEMB      190             0.0000000000
     21982       190  CHL1      C15           -28.8318828553      -36.8081056254       -9.8415675267  MEMB      190             0.0000000000
     21983       190  CHL1      H15A          -29.5769141128      -37.6270667251       -9.7575575487  MEMB      190             0.0000000000
     21984       190  CHL1      H15B          -27.8728853991      -37.2116971209      -10.2103591664  MEMB      190             0.0000000000
     21985       190  CHL1      C16           -28.7407360615      -36.0360712743       -8.5099286725  MEMB      190             0.0000000000
     21986       190  CHL1      H16A          -29.1456228610      -36.7046571873       -7.7257917527  MEMB      190             0.0000000000
     21987       190  CHL1      H16B          -27.7122527267      -35.7144880238       -8.2473207168  MEMB      190             0.0000000000
     21988       190  CHL1      C17           -29.5577618346      -34.7302543421       -8.7404281380  MEMB      190             0.0000000000
     21989       190  CHL1      H17           -28.8338009386      -33.9712735621       -9.1377432951  MEMB      190             0.0000000000
     21990       190  CHL1      C13           -30.4166389743      -34.9738351899       -9.9841503474  MEMB      190             0.0000000000
     21991       190  CHL1      C18           -31.6805181496      -35.8240320781       -9.6840732296  MEMB      190             0.0000000000
     21992       190  CHL1      H18A          -32.1505474909      -36.1333285824      -10.6365949930  MEMB      190             0.0000000000
     21993       190  CHL1      H18B          -31.4609135322      -36.7361034177       -9.0911994289  MEMB      190             0.0000000000
     21994       190  CHL1      H18C          -32.4442557284      -35.2300287878       -9.1456242504  MEMB      190             0.0000000000
     21995       190  CHL1      C12           -30.7412376028      -33.6916895779      -10.7528217655  MEMB      190             0.0000000000
     21996       190  CHL1      H12A          -31.5147015505      -33.1232463155      -10.2011769293  MEMB      190             0.0000000000
     21997       190  CHL1      H12B          -29.8307337386      -33.0564255189      -10.8055510141  MEMB      190             0.0000000000
     21998       190  CHL1      C11           -31.2043665605      -33.9935080599      -12.1829118954  MEMB      190             0.0000000000
     21999       190  CHL1      H11A          -32.2269343187      -34.4085466716      -12.1312216425  MEMB      190             0.0000000000
     22000       190  CHL1      H11B          -31.2396273779      -33.0342174581      -12.7383931355  MEMB      190             0.0000000000
     22001       190  CHL1      C9            -30.3069110861      -34.9788764739      -12.9727869153  MEMB      190             0.0000000000
     22002       190  CHL1      H9            -29.3363975535      -34.4392520134      -13.1180147244  MEMB      190             0.0000000000
     22003       190  CHL1      C10           -30.8711917176      -35.2863599860      -14.3874817926  MEMB      190             0.0000000000
     22004       190  CHL1      C19           -32.2414355511      -36.0209051094      -14.2397654201  MEMB      190             0.0000000000
     22005       190  CHL1      H19A          -33.0637573382      -35.3404452398      -13.9464886694  MEMB      190             0.0000000000
     22006       190  CHL1      H19B          -32.5661950892      -36.5360519822      -15.1670359246  MEMB      190             0.0000000000
     22007       190  CHL1      H19C          -32.1631061912      -36.7961636900      -13.4529343538  MEMB      190             0.0000000000
     22008       190  CHL1      C1            -30.9768920413      -33.9306181326      -15.1770175260  MEMB      190             0.0000000000
     22009       190  CHL1      H1A           -31.8864623575      -33.4062400287      -14.8205314281  MEMB      190             0.0000000000
     22010       190  CHL1      H1B           -30.0899356201      -33.3029877668      -14.9307477148  MEMB      190             0.0000000000
     22011       190  CHL1      C2            -31.0994834753      -34.0069494023      -16.7066757604  MEMB      190             0.0000000000
     22012       190  CHL1      H2A           -31.0553795893      -33.0082504456      -17.1979124661  MEMB      190             0.0000000000
     22013       190  CHL1      H2B           -32.1139581578      -34.4105306902      -16.9305130923  MEMB      190             0.0000000000
     22014       190  CHL1      C20           -30.1562747175      -34.0348317679       -7.5286697242  MEMB      190             0.0000000000
     22015       190  CHL1      H20           -30.9076789919      -33.3037541959       -7.9142839491  MEMB      190             0.0000000000
     22016       190  CHL1      C21           -29.0377723849      -33.2125690537       -6.8287017132  MEMB      190             0.0000000000
     22017       190  CHL1      H21A          -28.2717029572      -33.8410638950       -6.3677598992  MEMB      190             0.0000000000
     22018       190  CHL1      H21B          -29.4746014791      -32.5901353104       -6.0193583628  MEMB      190             0.0000000000
     22019       190  CHL1      H21C          -28.5101409229      -32.5228046278       -7.5228407555  MEMB      190             0.0000000000
     22020       190  CHL1      C22           -30.8969550006      -34.9569465776       -6.5468251757  MEMB      190             0.0000000000
     22021       190  CHL1      H22A          -31.8298870314      -35.2857269904       -7.0519476506  MEMB      190             0.0000000000
     22022       190  CHL1      H22B          -30.3313104385      -35.8733211194       -6.2890004619  MEMB      190             0.0000000000
     22023       190  CHL1      C23           -31.2823610889      -34.2333260689       -5.2662142205  MEMB      190             0.0000000000
     22024       190  CHL1      H23A          -30.4155881796      -33.8131089649       -4.7018074713  MEMB      190             0.0000000000
     22025       190  CHL1      H23B          -32.0073086203      -33.4265129224       -5.5072986951  MEMB      190             0.0000000000
     22026       190  CHL1      C24           -32.0203963821      -35.1093603650       -4.3078170986  MEMB      190             0.0000000000
     22027       190  CHL1      H24A          -32.5623928322      -34.3398932362       -3.6970368794  MEMB      190             0.0000000000
     22028       190  CHL1      H24B          -32.7711376653      -35.7450547312       -4.8148995155  MEMB      190             0.0000000000
     22029       190  CHL1      C25           -31.0611848408      -35.9211931981       -3.4457562730  MEMB      190             0.0000000000
     22030       190  CHL1      H25           -30.1769892101      -35.3241896391       -3.1569171015  MEMB      190             0.0000000000
     22031       190  CHL1      C26           -31.4781636281      -36.0788016240       -2.1405788067  MEMB      190             0.0000000000
     22032       190  CHL1      H26A          -31.9066586216      -35.1570364535       -1.6214968616  MEMB      190             0.0000000000
     22033       190  CHL1      H26B          -32.2456825827      -36.8941652835       -2.0954150400  MEMB      190             0.0000000000
     22034       190  CHL1      H26C          -30.7366232530      -36.6528923791       -1.5837555880  MEMB      190             0.0000000000
     22035       190  CHL1      C27           -30.7645738440      -37.3743219856       -3.7960563982  MEMB      190             0.0000000000
     22036       190  CHL1      H27A          -31.6227173742      -38.0251251103       -4.0536643002  MEMB      190             0.0000000000
     22037       190  CHL1      H27B          -30.0890261308      -37.2393980729       -4.6358371374  MEMB      190             0.0000000000
     22038       190  CHL1      H27C          -30.2672658188      -37.9023346076       -2.9482028432  MEMB      190             0.0000000000
     22039       191  SAPC      N              32.3084491322      -31.0254327609      -20.2573708494  MEMB      191             0.0000000000
     22040       191  SAPC      C12            33.2222743569      -31.9692859744      -20.9282223774  MEMB      191             0.0000000000
     22041       191  SAPC      H12A           33.0569973016      -31.8525420269      -21.9832958106  MEMB      191             0.0000000000
     22042       191  SAPC      H12B           32.9043544192      -32.9922527690      -20.7470003411  MEMB      191             0.0000000000
     22043       191  SAPC      C13            32.4913328198      -30.9530969142      -18.6269605898  MEMB      191             0.0000000000
     22044       191  SAPC      H13A           32.3451117413      -31.9268177636      -18.1547437022  MEMB      191             0.0000000000
     22045       191  SAPC      H13B           33.4032193073      -30.6748333157      -18.1378368933  MEMB      191             0.0000000000
     22046       191  SAPC      H13C           31.5561492250      -30.6193987964      -18.1119880909  MEMB      191             0.0000000000
     22047       191  SAPC      C14            32.6008642781      -29.7831550509      -20.7817768000  MEMB      191             0.0000000000
     22048       191  SAPC      H14A           31.9848784690      -29.3556049028      -20.0799927796  MEMB      191             0.0000000000
     22049       191  SAPC      H14B           33.6022170034      -29.5032252084      -20.5314348403  MEMB      191             0.0000000000
     22050       191  SAPC      H14C           32.1277074236      -29.5951075408      -21.7349008656  MEMB      191             0.0000000000
     22051       191  SAPC      C15            30.9499325407      -31.2297044566      -20.9376517124  MEMB      191             0.0000000000
     22052       191  SAPC      H15A           29.9607603318      -31.1220308956      -20.4043807848  MEMB      191             0.0000000000
     22053       191  SAPC      H15B           30.5251534562      -30.8402129025      -21.8341282653  MEMB      191             0.0000000000
     22054       191  SAPC      H15C           30.4511914150      -32.2136762674      -20.6668312143  MEMB      191             0.0000000000
     22055       191  SAPC      C11            34.5245152324      -32.1310957409      -20.2696491972  MEMB      191             0.0000000000
     22056       191  SAPC      H11A           35.0517638623      -32.8770369404      -20.9181686742  MEMB      191             0.0000000000
     22057       191  SAPC      H11B           34.4856829868      -32.6232102346      -19.2597110767  MEMB      191             0.0000000000
     22058       191  SAPC      P              36.3753171011      -30.5128325711      -19.9382001826  MEMB      191             0.0000000000
     22059       191  SAPC      O13            36.7186977814      -31.2411407938      -18.7079561796  MEMB      191             0.0000000000
     22060       191  SAPC      O14            36.8193357320      -30.7411568416      -21.3181031992  MEMB      191             0.0000000000
     22061       191  SAPC      O12            34.9355279392      -30.7783752454      -20.1685284066  MEMB      191             0.0000000000
     22062       191  SAPC      O11            36.6955005436      -29.0334196324      -19.8178987611  MEMB      191             0.0000000000
     22063       191  SAPC      C1             35.7540573694      -28.2163576937      -19.2359325322  MEMB      191             0.0000000000
     22064       191  SAPC      HA             35.4640631908      -27.5096906232      -20.0266508178  MEMB      191             0.0000000000
     22065       191  SAPC      HB             34.8620786372      -28.7303885146      -18.8038665820  MEMB      191             0.0000000000
     22066       191  SAPC      C2             36.4110491237      -27.5869129562      -18.0561783309  MEMB      191             0.0000000000
     22067       191  SAPC      HS             37.4637900648      -27.3290767090      -18.3950894987  MEMB      191             0.0000000000
     22068       191  SAPC      O21            36.3199212067      -28.5373922993      -16.9408871115  MEMB      191             0.0000000000
     22069       191  SAPC      C21            37.3722652671      -28.5059138199      -16.1592206874  MEMB      191             0.0000000000
     22070       191  SAPC      O22            38.3678899298      -27.8986973275      -16.3765878087  MEMB      191             0.0000000000
     22071       191  SAPC      C22            37.3247998590      -29.2589930996      -14.8556513821  MEMB      191             0.0000000000
     22072       191  SAPC      H2R            36.3576228631      -29.1344550009      -14.3635692053  MEMB      191             0.0000000000
     22073       191  SAPC      H2S            37.5324155945      -30.2816404932      -15.2230967983  MEMB      191             0.0000000000
     22074       191  SAPC      C3             35.5609428503      -26.3172704380      -17.7600442931  MEMB      191             0.0000000000
     22075       191  SAPC      HX             35.4640270099      -25.6624559843      -18.6426373742  MEMB      191             0.0000000000
     22076       191  SAPC      HY             35.8955011409      -25.5851153065      -17.0724072292  MEMB      191             0.0000000000
     22077       191  SAPC      O31            34.3319810608      -26.7068088104      -17.2164638761  MEMB      191             0.0000000000
     22078       191  SAPC      C31            34.2646209518      -26.7654924710      -15.9079826895  MEMB      191             0.0000000000
     22079       191  SAPC      O32            34.8734605308      -26.1603607992      -15.0722639928  MEMB      191             0.0000000000
     22080       191  SAPC      C32            33.1083973441      -27.6300107144      -15.6154935104  MEMB      191             0.0000000000
     22081       191  SAPC      H2X            32.7610806862      -28.2980048254      -16.3346961443  MEMB      191             0.0000000000
     22082       191  SAPC      H2Y            32.3776394890      -26.9833312049      -16.1064699818  MEMB      191             0.0000000000
     22083       191  SAPC      C23            38.5375473016      -28.9164994232      -13.9244478186  MEMB      191             0.0000000000
     22084       191  SAPC      H3R            39.3396771342      -28.7547831296      -14.6346453027  MEMB      191             0.0000000000
     22085       191  SAPC      H3S            38.8319135970      -29.7818594181      -13.3023341650  MEMB      191             0.0000000000
     22086       191  SAPC      C24            38.4429185822      -27.7577137050      -12.9758852562  MEMB      191             0.0000000000
     22087       191  SAPC      H4R            38.2851425623      -26.8431291408      -13.5540108960  MEMB      191             0.0000000000
     22088       191  SAPC      H4S            39.3203369082      -27.4467249101      -12.3592697154  MEMB      191             0.0000000000
     22089       191  SAPC      C25            37.2645823399      -28.2846167888      -12.1974905101  MEMB      191             0.0000000000
     22090       191  SAPC      H5R            36.3113670129      -27.8180249961      -12.2957209521  MEMB      191             0.0000000000
     22091       191  SAPC      C26            37.1859463031      -29.0316455026      -11.1467733751  MEMB      191             0.0000000000
     22092       191  SAPC      H6R            36.2837960046      -28.7393494214      -10.5512865459  MEMB      191             0.0000000000
     22093       191  SAPC      C27            38.3783837094      -29.5802411696      -10.4190110573  MEMB      191             0.0000000000
     22094       191  SAPC      H7R            38.6712956283      -30.2623800097      -11.2185178093  MEMB      191             0.0000000000
     22095       191  SAPC      H7S            37.8838536523      -30.0834099626       -9.5922202266  MEMB      191             0.0000000000
     22096       191  SAPC      C28            39.6859881488      -29.1477302932       -9.7464581968  MEMB      191             0.0000000000
     22097       191  SAPC      H8R            40.2391935560      -28.5067326616      -10.4781527806  MEMB      191             0.0000000000
     22098       191  SAPC      C29            39.9584064505      -28.8322551450       -8.4177454837  MEMB      191             0.0000000000
     22099       191  SAPC      H9R            40.8403331751      -28.1519291944       -8.3196217045  MEMB      191             0.0000000000
     22100       191  SAPC      C210           39.0009082986      -28.7620365566       -7.1688869477  MEMB      191             0.0000000000
     22101       191  SAPC      H10R           39.4038077171      -29.4649247535       -6.4518101011  MEMB      191             0.0000000000
     22102       191  SAPC      H10S           37.9815204902      -28.9960561906       -7.4991441113  MEMB      191             0.0000000000
     22103       191  SAPC      C211           38.6228517639      -27.6030245271       -6.2113442385  MEMB      191             0.0000000000
     22104       191  SAPC      H11R           38.0899402606      -26.6426940718       -6.4394573565  MEMB      191             0.0000000000
     22105       191  SAPC      C212           39.1739406514      -27.3202711818       -5.1163541146  MEMB      191             0.0000000000
     22106       191  SAPC      H12R           39.7721325197      -26.4520139404       -5.1220414185  MEMB      191             0.0000000000
     22107       191  SAPC      C213           40.1671317020      -27.8213921147       -4.3718526296  MEMB      191             0.0000000000
     22108       191  SAPC      H13R           41.0827591315      -27.2008968443       -4.2230839940  MEMB      191             0.0000000000
     22109       191  SAPC      H13S           40.4146243960      -28.5675600592       -5.0922568280  MEMB      191             0.0000000000
     22110       191  SAPC      C214           39.3253702367      -28.3183368450       -3.2708370278  MEMB      191             0.0000000000
     22111       191  SAPC      H14R           38.4518206231      -28.8500038744       -3.6612398410  MEMB      191             0.0000000000
     22112       191  SAPC      C215           39.4418757234      -28.2550959664       -1.9524174694  MEMB      191             0.0000000000
     22113       191  SAPC      H15R           38.7087901578      -28.7916461880       -1.3990798293  MEMB      191             0.0000000000
     22114       191  SAPC      C216           40.4771783770      -27.6518102856       -1.0754986897  MEMB      191             0.0000000000
     22115       191  SAPC      H16R           41.2011923875      -27.0882483955       -1.6460688340  MEMB      191             0.0000000000
     22116       191  SAPC      H16S           40.8971538785      -28.2910625537       -0.3174441608  MEMB      191             0.0000000000
     22117       191  SAPC      C217           40.4457305035      -26.7080725091       -0.0148784537  MEMB      191             0.0000000000
     22118       191  SAPC      H17R           39.8628056299      -25.9607487068       -0.4525826370  MEMB      191             0.0000000000
     22119       191  SAPC      H17S           41.4654591797      -26.3533600272        0.1991090329  MEMB      191             0.0000000000
     22120       191  SAPC      C218           39.4274782094      -26.7789945129        0.9413744888  MEMB      191             0.0000000000
     22121       191  SAPC      H18R           39.7499608873      -27.6397427033        1.4944621096  MEMB      191             0.0000000000
     22122       191  SAPC      H18S           38.5096570840      -26.9100762887        0.2877585031  MEMB      191             0.0000000000
     22123       191  SAPC      C219           39.5496685703      -25.4297381514        1.6151062513  MEMB      191             0.0000000000
     22124       191  SAPC      H19R           39.5947622561      -24.7823280385        0.8172027044  MEMB      191             0.0000000000
     22125       191  SAPC      H19S           40.3022659001      -25.2143561617        2.3010654297  MEMB      191             0.0000000000
     22126       191  SAPC      C220           38.4404545413      -24.9199720467        2.2607684908  MEMB      191             0.0000000000
     22127       191  SAPC      H20R           37.6171964194      -24.9203570150        1.4841110751  MEMB      191             0.0000000000
     22128       191  SAPC      H20S           38.1854704802      -24.3593152322        3.1608157785  MEMB      191             0.0000000000
     22129       191  SAPC      H20T           38.6571091055      -25.9034450853        2.7345881165  MEMB      191             0.0000000000
     22130       191  SAPC      C33            32.8322914201      -27.8088427477      -14.1160970478  MEMB      191             0.0000000000
     22131       191  SAPC      H3X            31.7496530852      -27.6323093189      -13.7742836353  MEMB      191             0.0000000000
     22132       191  SAPC      H3Y            33.5747238484      -27.1086821826      -13.6413883380  MEMB      191             0.0000000000
     22133       191  SAPC      C34            32.8959774242      -28.8940599283      -13.3467692465  MEMB      191             0.0000000000
     22134       191  SAPC      H4X            34.0044859554      -28.8713651593      -13.4543105689  MEMB      191             0.0000000000
     22135       191  SAPC      H4Y            32.1859475317      -29.4419613927      -14.0167584397  MEMB      191             0.0000000000
     22136       191  SAPC      C35            32.4629801812      -28.6713860028      -11.9139381238  MEMB      191             0.0000000000
     22137       191  SAPC      H5X            31.3630878985      -28.6858867187      -11.7369764177  MEMB      191             0.0000000000
     22138       191  SAPC      H5Y            32.9245563200      -27.8011599429      -11.3927223694  MEMB      191             0.0000000000
     22139       191  SAPC      C36            33.1795705116      -29.7567788758      -11.2623198130  MEMB      191             0.0000000000
     22140       191  SAPC      H6X            32.8895795370      -29.6513265510      -10.2013242040  MEMB      191             0.0000000000
     22141       191  SAPC      H6Y            34.2724069941      -29.5513173598      -11.4170292927  MEMB      191             0.0000000000
     22142       191  SAPC      C37            32.8950377822      -31.0667251054      -11.9678670797  MEMB      191             0.0000000000
     22143       191  SAPC      H7X            33.2057431549      -31.0505437799      -13.0372825796  MEMB      191             0.0000000000
     22144       191  SAPC      H7Y            31.8011797332      -31.2591976343      -12.0127372817  MEMB      191             0.0000000000
     22145       191  SAPC      C38            33.7848193447      -32.1443525964      -11.3647226706  MEMB      191             0.0000000000
     22146       191  SAPC      H8X            34.8508021360      -31.8472940085      -11.4675289738  MEMB      191             0.0000000000
     22147       191  SAPC      H8Y            33.6303002656      -33.0620120043      -11.9690607570  MEMB      191             0.0000000000
     22148       191  SAPC      C39            33.5206166561      -32.4145046635       -9.8771567748  MEMB      191             0.0000000000
     22149       191  SAPC      H9X            33.7125591690      -33.4994180240       -9.7069796597  MEMB      191             0.0000000000
     22150       191  SAPC      H9Y            32.4626344787      -32.1641110760       -9.7416454682  MEMB      191             0.0000000000
     22151       191  SAPC      C310           34.3045968978      -31.5420276054       -8.8718086517  MEMB      191             0.0000000000
     22152       191  SAPC      H10X           34.3470403799      -30.5041282339       -9.2358998878  MEMB      191             0.0000000000
     22153       191  SAPC      H10Y           35.3370312624      -31.9189226236       -8.7841159210  MEMB      191             0.0000000000
     22154       191  SAPC      C311           33.7995450451      -31.4231082356       -7.4366343978  MEMB      191             0.0000000000
     22155       191  SAPC      H11X           34.4227091950      -30.7310252065       -6.8398046413  MEMB      191             0.0000000000
     22156       191  SAPC      H11Y           33.7236442303      -32.4227353061       -6.9575936476  MEMB      191             0.0000000000
     22157       191  SAPC      C312           32.4876520236      -30.7813322919       -7.2618087590  MEMB      191             0.0000000000
     22158       191  SAPC      H12X           31.8824793744      -31.5451576000       -7.7496448257  MEMB      191             0.0000000000
     22159       191  SAPC      H12Y           32.3936095250      -29.7525539397       -7.7050499868  MEMB      191             0.0000000000
     22160       191  SAPC      C313           32.1112279231      -30.8373594664       -5.8019826308  MEMB      191             0.0000000000
     22161       191  SAPC      H13X           31.7449607632      -31.7727515114       -5.3522824846  MEMB      191             0.0000000000
     22162       191  SAPC      H13Y           31.1994997921      -30.4175991862       -5.9676630554  MEMB      191             0.0000000000
     22163       191  SAPC      C314           32.6591953796      -29.7288437820       -4.9359663861  MEMB      191             0.0000000000
     22164       191  SAPC      H14X           32.1395291303      -28.7586178968       -5.1595834679  MEMB      191             0.0000000000
     22165       191  SAPC      H14Y           33.6938567108      -29.6379818914       -5.2429252333  MEMB      191             0.0000000000
     22166       191  SAPC      C315           32.6720811421      -29.9832892931       -3.4356453417  MEMB      191             0.0000000000
     22167       191  SAPC      H15X           31.7666942219      -29.7938763592       -2.9949291678  MEMB      191             0.0000000000
     22168       191  SAPC      H15Y           32.9565478970      -29.0906554605       -2.8844134118  MEMB      191             0.0000000000
     22169       191  SAPC      C316           33.2150438904      -31.2971068835       -2.8981670977  MEMB      191             0.0000000000
     22170       191  SAPC      H16X           32.6549728367      -32.2255664809       -3.1763143480  MEMB      191             0.0000000000
     22171       191  SAPC      H16Y           33.1651478985      -31.2296987819       -1.7856611522  MEMB      191             0.0000000000
     22172       191  SAPC      C317           34.6451814342      -31.3183426770       -3.3646659549  MEMB      191             0.0000000000
     22173       191  SAPC      H17X           34.6648092225      -31.2169501161       -4.4723360842  MEMB      191             0.0000000000
     22174       191  SAPC      H17Y           35.0762807969      -32.2939706417       -3.0911884014  MEMB      191             0.0000000000
     22175       191  SAPC      C318           35.4395849363      -30.1682894620       -2.7538573049  MEMB      191             0.0000000000
     22176       191  SAPC      H18X           34.9251673263      -29.1876830425       -2.8859701492  MEMB      191             0.0000000000
     22177       191  SAPC      H18Y           36.4439490444      -30.0828932615       -3.1987451021  MEMB      191             0.0000000000
     22178       191  SAPC      H18Z           35.5632920095      -30.3619323072       -1.6689878175  MEMB      191             0.0000000000
     22179       192  CHL1      C3            -36.8328440474       34.9385511688      -17.3830431866  MEMB      192             0.0000000000
     22180       192  CHL1      H3            -35.8179608721       35.3727500298      -17.5359643714  MEMB      192             0.0000000000
     22181       192  CHL1      O3            -37.3981048280       34.7151636991      -18.6567336894  MEMB      192             0.0000000000
     22182       192  CHL1      H3'           -36.6565400121       34.3223309553      -19.1246430469  MEMB      192             0.0000000000
     22183       192  CHL1      C4            -36.7388937780       33.5640595057      -16.6763717137  MEMB      192             0.0000000000
     22184       192  CHL1      H4A           -37.7011756273       33.0271737079      -16.8311689715  MEMB      192             0.0000000000
     22185       192  CHL1      H4B           -35.9517643332       32.9788672430      -17.2101465114  MEMB      192             0.0000000000
     22186       192  CHL1      C5            -36.4257534158       33.6521579600      -15.1944529037  MEMB      192             0.0000000000
     22187       192  CHL1      C6            -35.4377455312       32.9398436935      -14.6337285169  MEMB      192             0.0000000000
     22188       192  CHL1      H6            -34.9006151224       32.2408461233      -15.2890008270  MEMB      192             0.0000000000
     22189       192  CHL1      C7            -35.0528648694       32.9963219513      -13.1688983501  MEMB      192             0.0000000000
     22190       192  CHL1      H7A           -34.7870621554       31.9926669223      -12.7674790852  MEMB      192             0.0000000000
     22191       192  CHL1      H7B           -34.1376120047       33.6143608341      -13.0209123285  MEMB      192             0.0000000000
     22192       192  CHL1      C8            -36.1881959307       33.6359758031      -12.3151716658  MEMB      192             0.0000000000
     22193       192  CHL1      H8            -36.9974589122       32.8761667500      -12.2330459574  MEMB      192             0.0000000000
     22194       192  CHL1      C14           -35.6692131015       33.9960212718      -10.9300068761  MEMB      192             0.0000000000
     22195       192  CHL1      H14           -34.8567648627       34.7476779767      -11.1027364113  MEMB      192             0.0000000000
     22196       192  CHL1      C15           -35.0192306969       32.8555184327      -10.1411867673  MEMB      192             0.0000000000
     22197       192  CHL1      H15A          -35.6656845222       31.9536248207      -10.2122185185  MEMB      192             0.0000000000
     22198       192  CHL1      H15B          -34.0041059476       32.6088341202      -10.5203941013  MEMB      192             0.0000000000
     22199       192  CHL1      C16           -34.9436622876       33.4345117673       -8.7243592608  MEMB      192             0.0000000000
     22200       192  CHL1      H16A          -35.4693188705       32.7749756659       -8.0036190121  MEMB      192             0.0000000000
     22201       192  CHL1      H16B          -33.8754504527       33.5063091197       -8.4465843720  MEMB      192             0.0000000000
     22202       192  CHL1      C17           -35.6703388377       34.8266669546       -8.7422088253  MEMB      192             0.0000000000
     22203       192  CHL1      H17           -34.9049078789       35.5870987427       -9.0296316340  MEMB      192             0.0000000000
     22204       192  CHL1      C13           -36.6057202942       34.7386319768       -9.9641376537  MEMB      192             0.0000000000
     22205       192  CHL1      C18           -37.8268854978       33.8826312516       -9.6081597879  MEMB      192             0.0000000000
     22206       192  CHL1      H18A          -38.2402652323       33.4402046356      -10.5336801386  MEMB      192             0.0000000000
     22207       192  CHL1      H18B          -37.4999700634       33.0816700612       -8.9482767705  MEMB      192             0.0000000000
     22208       192  CHL1      H18C          -38.6204632632       34.4340481522       -9.0652760418  MEMB      192             0.0000000000
     22209       192  CHL1      C12           -37.0082570045       36.0462202942      -10.6465039075  MEMB      192             0.0000000000
     22210       192  CHL1      H12A          -37.7526035611       36.6027251824      -10.0441918519  MEMB      192             0.0000000000
     22211       192  CHL1      H12B          -36.0937540845       36.6707300227      -10.7169295602  MEMB      192             0.0000000000
     22212       192  CHL1      C11           -37.6270448451       35.7602740161      -12.0316118018  MEMB      192             0.0000000000
     22213       192  CHL1      H11A          -38.5820915672       35.2261981494      -11.8376207072  MEMB      192             0.0000000000
     22214       192  CHL1      H11B          -37.9023923732       36.7287326431      -12.4911457355  MEMB      192             0.0000000000
     22215       192  CHL1      C9            -36.7109963227       34.9135381304      -12.9822752765  MEMB      192             0.0000000000
     22216       192  CHL1      H9            -35.8009882588       35.5264133957      -13.1739716611  MEMB      192             0.0000000000
     22217       192  CHL1      C10           -37.2223672305       34.7016523936      -14.4239758525  MEMB      192             0.0000000000
     22218       192  CHL1      C19           -38.6223496079       34.1991164683      -14.3607408565  MEMB      192             0.0000000000
     22219       192  CHL1      H19A          -38.6510642024       33.3754000469      -13.6497101357  MEMB      192             0.0000000000
     22220       192  CHL1      H19B          -39.2858496997       34.9704098720      -13.9557840506  MEMB      192             0.0000000000
     22221       192  CHL1      H19C          -39.0667549697       33.8763616921      -15.3267638769  MEMB      192             0.0000000000
     22222       192  CHL1      C1            -37.2575585336       36.0529049356      -15.1547206455  MEMB      192             0.0000000000
     22223       192  CHL1      H1A           -37.9097499959       36.7576952778      -14.6002302296  MEMB      192             0.0000000000
     22224       192  CHL1      H1B           -36.2441131930       36.4962357699      -15.1180135275  MEMB      192             0.0000000000
     22225       192  CHL1      C2            -37.6977200568       35.9404180933      -16.6229756359  MEMB      192             0.0000000000
     22226       192  CHL1      H2A           -37.6261326178       36.9530853960      -17.0801164468  MEMB      192             0.0000000000
     22227       192  CHL1      H2B           -38.7492007986       35.6104505019      -16.7477939683  MEMB      192             0.0000000000
     22228       192  CHL1      C20           -36.2260885317       35.2276312395       -7.3601506018  MEMB      192             0.0000000000
     22229       192  CHL1      H20           -36.9415956950       34.4495664538       -7.0126057428  MEMB      192             0.0000000000
     22230       192  CHL1      C21           -37.0449305314       36.5428135311       -7.4272863336  MEMB      192             0.0000000000
     22231       192  CHL1      H21A          -37.9798704568       36.3285665556       -7.9828709424  MEMB      192             0.0000000000
     22232       192  CHL1      H21B          -36.5057780369       37.3546038536       -7.9564119010  MEMB      192             0.0000000000
     22233       192  CHL1      H21C          -37.3740214825       36.9101356446       -6.4334155347  MEMB      192             0.0000000000
     22234       192  CHL1      C22           -35.1014608505       35.2146780873       -6.2941328880  MEMB      192             0.0000000000
     22235       192  CHL1      H22A          -34.6701696469       34.1874253645       -6.2448491173  MEMB      192             0.0000000000
     22236       192  CHL1      H22B          -34.3068039744       35.9503198235       -6.5479128862  MEMB      192             0.0000000000
     22237       192  CHL1      C23           -35.5654678386       35.5193703115       -4.8813682442  MEMB      192             0.0000000000
     22238       192  CHL1      H23A          -35.8655043522       36.5885211004       -4.8438599228  MEMB      192             0.0000000000
     22239       192  CHL1      H23B          -36.4316764174       34.8827798310       -4.5910992702  MEMB      192             0.0000000000
     22240       192  CHL1      C24           -34.4894859424       35.2477065820       -3.8471884365  MEMB      192             0.0000000000
     22241       192  CHL1      H24A          -34.4427526106       34.1467629105       -3.6765285108  MEMB      192             0.0000000000
     22242       192  CHL1      H24B          -33.4818267364       35.5266639855       -4.2035815784  MEMB      192             0.0000000000
     22243       192  CHL1      C25           -34.9078518589       35.9373554971       -2.5427773026  MEMB      192             0.0000000000
     22244       192  CHL1      H25           -35.9875766851       36.1438317590       -2.5558799466  MEMB      192             0.0000000000
     22245       192  CHL1      C26           -34.5123932137       35.0122817045       -1.3843885086  MEMB      192             0.0000000000
     22246       192  CHL1      H26A          -33.5111967817       34.5474744601       -1.5316379072  MEMB      192             0.0000000000
     22247       192  CHL1      H26B          -34.5053786368       35.5993861014       -0.4586834924  MEMB      192             0.0000000000
     22248       192  CHL1      H26C          -35.2310200083       34.1814619639       -1.2416600804  MEMB      192             0.0000000000
     22249       192  CHL1      C27           -34.5022935876       37.4077797796       -2.4317942799  MEMB      192             0.0000000000
     22250       192  CHL1      H27A          -34.4145549318       38.0212149439       -3.3373321033  MEMB      192             0.0000000000
     22251       192  CHL1      H27B          -34.4057239446       37.8958862605       -1.4455846724  MEMB      192             0.0000000000
     22252       192  CHL1      H27C          -33.5300140648       37.2647184364       -2.6235527737  MEMB      192             0.0000000000
     22253       193  TIP3      OH2            -1.2814779394        1.7294605381       18.7902203978  TIP3      1               0.0000000000
     22254       193  TIP3      H1             -0.8335344606        2.2677350694       18.1548174156  TIP3      1               0.0000000000
     22255       193  TIP3      H2             -2.2071503108        1.7258514565       18.4700419454  TIP3      1               0.0000000000
     22256       194  TIP3      OH2            -5.2877887866       -7.8447029728       19.7515658129  TIP3      2               0.0000000000
     22257       194  TIP3      H1             -5.0815474618       -6.9500235236       19.3948048038  TIP3      2               0.0000000000
     22258       194  TIP3      H2             -4.4421752411       -8.1297569927       20.0716012994  TIP3      2               0.0000000000
     22259       195  TIP3      OH2            -5.5824154656       -3.1289558555       20.5455315082  TIP3      3               0.0000000000
     22260       195  TIP3      H1             -5.0789956463       -2.5392926196       21.1040166009  TIP3      3               0.0000000000
     22261       195  TIP3      H2             -5.5962908692       -2.7043700469       19.6873822233  TIP3      3               0.0000000000
     22262       196  TIP3      OH2            -9.8593207964        0.7683947410       19.7185288533  TIP3      4               0.0000000000
     22263       196  TIP3      H1            -10.1387070372       -0.0678667262       19.3031610121  TIP3      4               0.0000000000
     22264       196  TIP3      H2             -9.1290396532        0.5604032298       20.2824176248  TIP3      4               0.0000000000
     22265       197  TIP3      OH2           -12.7584269547       -0.6921931076       20.3983373327  TIP3      5               0.0000000000
     22266       197  TIP3      H1            -12.0412182979       -1.0544002124       19.8381231424  TIP3      5               0.0000000000
     22267       197  TIP3      H2            -12.9668029146       -1.3706784831       21.0238749206  TIP3      5               0.0000000000
     22268       198  TIP3      OH2            -9.6561152315       -3.4163864878       20.2750524312  TIP3      6               0.0000000000
     22269       198  TIP3      H1             -9.4325661540       -2.9962558811       21.1158463973  TIP3      6               0.0000000000
     22270       198  TIP3      H2             -9.5923385646       -4.3529057253       20.4837260290  TIP3      6               0.0000000000
     22271       199  TIP3      OH2            -6.9478620868       12.7795211582       17.6083292610  TIP3      7               0.0000000000
     22272       199  TIP3      H1             -6.7517414038       13.4576936536       18.2641457661  TIP3      7               0.0000000000
     22273       199  TIP3      H2             -7.7970557325       12.4406547195       17.9129224115  TIP3      7               0.0000000000
     22274       200  TIP3      OH2            -6.6097855538       10.9526074099       20.4114935003  TIP3      8               0.0000000000
     22275       200  TIP3      H1             -7.0159061971       10.1783061871       20.8528823559  TIP3      8               0.0000000000
     22276       200  TIP3      H2             -6.0935176088       10.5867527956       19.6942097204  TIP3      8               0.0000000000
     22277       201  TIP3      OH2             4.4028845768       13.4334455985       20.3489895671  TIP3      9               0.0000000000
     22278       201  TIP3      H1              4.5824796165       14.3598869892       20.5168437851  TIP3      9               0.0000000000
     22279       201  TIP3      H2              3.7217027381       13.4067510316       19.6705784327  TIP3      9               0.0000000000
     22280       202  TIP3      OH2            -3.4606534707      -11.8222875047       20.3616696319  TIP3      10              0.0000000000
     22281       202  TIP3      H1             -4.2567826966      -11.2814776366       20.3737777919  TIP3      10              0.0000000000
     22282       202  TIP3      H2             -3.1981892201      -11.8986998725       21.2799414266  TIP3      10              0.0000000000
     22283       203  TIP3      OH2           -12.0283593138       -7.1557034642       19.5434524366  TIP3      11              0.0000000000
     22284       203  TIP3      H1            -11.3604731587       -7.4240364667       20.1815449232  TIP3      11              0.0000000000
     22285       203  TIP3      H2            -12.0036251599       -7.9034640266       18.9256008519  TIP3      11              0.0000000000
     22286       204  TIP3      OH2             7.7765522657      -16.3442781767       20.0085540746  TIP3      12              0.0000000000
     22287       204  TIP3      H1              8.1111720361      -15.4715070857       19.7396870802  TIP3      12              0.0000000000
     22288       204  TIP3      H2              6.9797643003      -16.1036799257       20.4788314562  TIP3      12              0.0000000000
     22289       205  TIP3      OH2            11.7836101824      -15.7895896691       20.2552409596  TIP3      13              0.0000000000
     22290       205  TIP3      H1             11.3819382261      -15.0637917273       20.7560384024  TIP3      13              0.0000000000
     22291       205  TIP3      H2             12.6482076903      -15.4540576030       20.0414774203  TIP3      13              0.0000000000
     22292       206  TIP3      OH2           -18.0844985407        1.6075005856       21.7629737753  TIP3      14              0.0000000000
     22293       206  TIP3      H1            -17.6615886949        1.1012064388       21.0531298008  TIP3      14              0.0000000000
     22294       206  TIP3      H2            -17.5863774176        2.4319876049       21.7401299365  TIP3      14              0.0000000000
     22295       207  TIP3      OH2            -8.1432543118       19.6957856192       19.3287175107  TIP3      15              0.0000000000
     22296       207  TIP3      H1             -8.7877413464       19.5173120320       20.0241046235  TIP3      15              0.0000000000
     22297       207  TIP3      H2             -7.7002408886       20.5106273037       19.5989884205  TIP3      15              0.0000000000
     22298       208  TIP3      OH2           -18.4149894166       11.8472055560       20.0119301194  TIP3      16              0.0000000000
     22299       208  TIP3      H1            -17.8648741579       11.1582100066       20.3583272766  TIP3      16              0.0000000000
     22300       208  TIP3      H2            -19.0954921609       11.3210110348       19.5284168444  TIP3      16              0.0000000000
     22301       209  TIP3      OH2           -22.9080633373       10.1466836471       20.0362845043  TIP3      17              0.0000000000
     22302       209  TIP3      H1            -23.3445656549       10.6246418141       20.7356505114  TIP3      17              0.0000000000
     22303       209  TIP3      H2            -22.9657840562        9.2209054630       20.2824810468  TIP3      17              0.0000000000
     22304       210  TIP3      OH2           -20.4599681253        9.6132240335       21.9374817765  TIP3      18              0.0000000000
     22305       210  TIP3      H1            -20.9547458161        8.8101614899       22.0169517427  TIP3      18              0.0000000000
     22306       210  TIP3      H2            -19.7544886885        9.3854014752       21.3269614759  TIP3      18              0.0000000000
     22307       211  TIP3      OH2             9.6038192572      -19.3345607737       19.0456570992  TIP3      19              0.0000000000
     22308       211  TIP3      H1              8.9148463320      -18.7335568661       18.7173738790  TIP3      19              0.0000000000
     22309       211  TIP3      H2             10.3851131137      -19.0064866919       18.6227264620  TIP3      19              0.0000000000
     22310       212  TIP3      OH2             8.3794373458      -21.0154602168       21.0847690030  TIP3      20              0.0000000000
     22311       212  TIP3      H1              8.1063266759      -21.7676297481       20.5442493021  TIP3      20              0.0000000000
     22312       212  TIP3      H2              8.8610319431      -20.4936417441       20.4233408738  TIP3      20              0.0000000000
     22313       213  TIP3      OH2             9.1392370819      -25.3272168092       19.3250383807  TIP3      21              0.0000000000
     22314       213  TIP3      H1              9.3438153832      -25.4779350622       20.2484791199  TIP3      21              0.0000000000
     22315       213  TIP3      H2              8.8369499789      -26.1684750579       18.9877032840  TIP3      21              0.0000000000
     22316       214  TIP3      OH2           -24.5111844217        1.7265554313       19.8004544359  TIP3      22              0.0000000000
     22317       214  TIP3      H1            -23.5519335130        1.6536568081       19.8271949649  TIP3      22              0.0000000000
     22318       214  TIP3      H2            -24.7178799604        1.9445134277       20.7189719196  TIP3      22              0.0000000000
     22319       215  TIP3      OH2           -14.5671137893       21.7650676725       20.6692022445  TIP3      23              0.0000000000
     22320       215  TIP3      H1            -15.2576717297       21.1629928924       20.9474384757  TIP3      23              0.0000000000
     22321       215  TIP3      H2            -14.0752851179       21.9558043410       21.4730937699  TIP3      23              0.0000000000
     22322       216  TIP3      OH2            -6.4504679364       24.5568208206       21.2201979959  TIP3      24            -26.7400000000
     22323       216  TIP3      H1             -7.3575819467       24.7524575199       21.4429536630  TIP3      24            -27.1800000000
     22324       216  TIP3      H2             -6.4283854598       24.5048463475       20.2519641258  TIP3      24            -26.0400000000
     22325       217  TIP3      OH2            -5.0497065259       27.5018343426       20.3474869932  TIP3      25              0.0000000000
     22326       217  TIP3      H1             -5.5703787556       27.5663406334       21.1545565378  TIP3      25              0.0000000000
     22327       217  TIP3      H2             -4.3442737185       28.1331646108       20.5360732669  TIP3      25              0.0000000000
     22328       218  TIP3      OH2            -5.0457968513       22.8527910701       19.1701218526  TIP3      26              0.0000000000
     22329       218  TIP3      H1             -5.1637508402       23.8142399772       19.0263753852  TIP3      26              0.0000000000
     22330       218  TIP3      H2             -4.1097253212       22.7287600424       19.0283026423  TIP3      26              0.0000000000
     22331       219  TIP3      OH2           -28.7617330458        4.6231475758       20.6649012673  TIP3      27              0.0000000000
     22332       219  TIP3      H1            -28.9157684827        3.7384299863       21.0136205200  TIP3      27              0.0000000000
     22333       219  TIP3      H2            -28.5118080197        5.0899451357       21.4715889863  TIP3      27              0.0000000000
     22334       220  TIP3      OH2            -1.9671638877      -28.9392989024       19.6367216942  TIP3      28              0.0000000000
     22335       220  TIP3      H1             -1.2160036587      -29.1120914485       20.2322249634  TIP3      28              0.0000000000
     22336       220  TIP3      H2             -2.6959955441      -28.8355292334       20.2209851350  TIP3      28              0.0000000000
     22337       221  TIP3      OH2            -7.4003840018      -31.1320741468       19.9648732633  TIP3      29              0.0000000000
     22338       221  TIP3      H1             -6.5938730956      -31.3538002670       19.5239830530  TIP3      29              0.0000000000
     22339       221  TIP3      H2             -7.3552800088      -31.0570959007       20.9146477776  TIP3      29              0.0000000000
     22340       222  TIP3      OH2             5.4934443748      -31.7365663558       19.5966761700  TIP3      30              0.0000000000
     22341       222  TIP3      H1              5.1887564103      -31.1560640600       20.2774132020  TIP3      30              0.0000000000
     22342       222  TIP3      H2              5.2278660563      -32.5901208682       19.9439022438  TIP3      30              0.0000000000
     22343       223  TIP3      OH2           -10.0876669282       31.9072561549       19.7676489265  TIP3      31              0.0000000000
     22344       223  TIP3      H1             -9.9256126383       30.9916503738       19.9733167080  TIP3      31              0.0000000000
     22345       223  TIP3      H2             -9.2939547876       32.2674406992       19.3593339438  TIP3      31              0.0000000000
     22346       224  TIP3      OH2           -13.7127201977       31.7454091601       20.7782670560  TIP3      32              0.0000000000
     22347       224  TIP3      H1            -14.4425938143       32.3273772138       20.6388616875  TIP3      32              0.0000000000
     22348       224  TIP3      H2            -13.4914151757       31.3865811843       19.8952039993  TIP3      32              0.0000000000
     22349       225  TIP3      OH2           -19.0231782847       24.1764172982       21.6540389043  TIP3      33              0.0000000000
     22350       225  TIP3      H1            -19.3986804720       24.8012504004       21.0321682900  TIP3      33              0.0000000000
     22351       225  TIP3      H2            -19.6416474471       23.4433340134       21.6672920856  TIP3      33              0.0000000000
     22352       226  TIP3      OH2           -22.2011446331       26.0797513516       21.0592192486  TIP3      34              0.0000000000
     22353       226  TIP3      H1            -22.5760112438       25.3246572691       20.6215986904  TIP3      34              0.0000000000
     22354       226  TIP3      H2            -22.8474786557       26.7848969890       20.9509593444  TIP3      34              0.0000000000
     22355       227  TIP3      OH2           -18.9777183531       27.9207470998       20.7575784235  TIP3      35              0.0000000000
     22356       227  TIP3      H1            -18.3694923307       28.3366962870       20.1411407249  TIP3      35              0.0000000000
     22357       227  TIP3      H2            -19.4910812211       27.3805543852       20.1343338123  TIP3      35              0.0000000000
     22358       228  TIP3      OH2           -21.2624111746       23.7038727896       19.3394212698  TIP3      36              0.0000000000
     22359       228  TIP3      H1            -21.6314750966       22.9803710479       18.8082159597  TIP3      36              0.0000000000
     22360       228  TIP3      H2            -21.1374394588       23.2300012732       20.1738873229  TIP3      36              0.0000000000
     22361       229  TIP3      OH2            12.2300861175       28.1500842278       20.1648390365  TIP3      37              0.0000000000
     22362       229  TIP3      H1             13.0100795065       28.6266137870       19.8414015679  TIP3      37              0.0000000000
     22363       229  TIP3      H2             11.6300909713       28.8961732147       20.3147441210  TIP3      37              0.0000000000
     22364       230  TIP3      OH2           -31.0727621077      -14.6829896043       21.3064644398  TIP3      38              0.0000000000
     22365       230  TIP3      H1            -31.2570347107      -14.1535468537       20.5287812527  TIP3      38              0.0000000000
     22366       230  TIP3      H2            -31.7195895854      -15.3910284955       21.2703674350  TIP3      38              0.0000000000
     22367       231  TIP3      OH2           -32.9724065363      -11.4798812459       19.4206428196  TIP3      39              0.0000000000
     22368       231  TIP3      H1            -32.5714803377      -11.5715575213       20.2584523576  TIP3      39              0.0000000000
     22369       231  TIP3      H2            -32.5120217765      -12.1544476045       18.8858831082  TIP3      39              0.0000000000
     22370       232  TIP3      OH2           -28.3818601257      -12.4525930751       19.9239209555  TIP3      40              0.0000000000
     22371       232  TIP3      H1            -28.7981113573      -11.7646572355       20.4298378811  TIP3      40              0.0000000000
     22372       232  TIP3      H2            -27.5023611411      -12.5253531361       20.3227938743  TIP3      40              0.0000000000
     22373       233  TIP3      OH2            36.8253310519       11.3085048731       20.5418837324  TIP3      41              0.0000000000
     22374       233  TIP3      H1             35.8988010792       11.2539438809       20.3609340556  TIP3      41              0.0000000000
     22375       233  TIP3      H2             36.9772371878       12.2424881829       20.7243997931  TIP3      41              0.0000000000
     22376       234  TIP3      OH2           -35.8198870767       16.8422817617       21.1948481947  TIP3      42              0.0000000000
     22377       234  TIP3      H1            -34.9178050579       17.0973605996       20.9683722440  TIP3      42              0.0000000000
     22378       234  TIP3      H2            -36.2251639174       17.6918668652       21.4403951365  TIP3      42              0.0000000000
     22379       235  TIP3      OH2            35.7148625526       18.3729399079       18.9957172241  TIP3      43              0.0000000000
     22380       235  TIP3      H1             36.6659789812       18.4422287552       18.8446518851  TIP3      43              0.0000000000
     22381       235  TIP3      H2             35.5685724277       17.4264163550       18.9210337049  TIP3      43              0.0000000000
     22382       236  TIP3      OH2           -34.4433675563       21.1851848530       18.2989147932  TIP3      44              0.0000000000
     22383       236  TIP3      H1            -34.7335007981       20.3030397734       18.5370733766  TIP3      44              0.0000000000
     22384       236  TIP3      H2            -34.3448618243       21.6628137944       19.1216190956  TIP3      44              0.0000000000
     22385       237  TIP3      OH2           -21.7035566307       30.7192972496       18.6240256050  TIP3      45              0.0000000000
     22386       237  TIP3      H1            -22.6436887854       30.9197414006       18.4968504476  TIP3      45              0.0000000000
     22387       237  TIP3      H2            -21.2583296580       31.5753191314       18.5168499955  TIP3      45              0.0000000000
     22388       238  TIP3      OH2           -26.6037035593       31.2953195721       20.3709721961  TIP3      46            -24.6700000000
     22389       238  TIP3      H1            -26.9324065855       32.0442212948       20.8708120885  TIP3      46              0.0000000000
     22390       238  TIP3      H2            -26.7210560894       30.5407382307       20.9587856834  TIP3      46              0.0000000000
     22391       239  TIP3      OH2           -22.6594916300      -32.1985805404       20.1074780875  TIP3      47              0.0000000000
     22392       239  TIP3      H1            -21.8122303821      -31.9198875707       19.7331531624  TIP3      47              0.0000000000
     22393       239  TIP3      H2            -22.4956941667      -32.1956358969       21.0516689665  TIP3      47              0.0000000000
     22394       240  TIP3      OH2            28.6456830663      -32.7003491275       19.9441384535  TIP3      48              0.0000000000
     22395       240  TIP3      H1             28.7156360111      -32.5066084070       20.8832449094  TIP3      48              0.0000000000
     22396       240  TIP3      H2             28.4284258129      -31.8994963544       19.4875555267  TIP3      48              0.0000000000
     22397       241  TIP3      OH2            30.7095025191      -34.6169049540       20.0696258588  TIP3      49              0.0000000000
     22398       241  TIP3      H1             30.1336521791      -33.8540430598       20.0028777824  TIP3      49              0.0000000000
     22399       241  TIP3      H2             30.1997924204      -35.2849090840       19.5819854560  TIP3      49              0.0000000000
     22400       242  TIP3      OH2            26.6459939793       36.4445941598       20.6140623749  TIP3      50              0.0000000000
     22401       242  TIP3      H1             26.9405301584       35.7503697458       21.2244052242  TIP3      50              0.0000000000
     22402       242  TIP3      H2             25.6897321295       36.2604144470       20.5425523449  TIP3      50              0.0000000000
     22403       243  TIP3      OH2             5.1147476796        0.6191654068      -19.9416226544  TIP3      51              0.0000000000
     22404       243  TIP3      H1              5.4200003949        0.0271849890      -20.6358703991  TIP3      51              0.0000000000
     22405       243  TIP3      H2              4.7597503586        1.3594808741      -20.4255458287  TIP3      51              0.0000000000
     22406       244  TIP3      OH2             1.7839986769        1.4658502625      -20.9294581133  TIP3      52              0.0000000000
     22407       244  TIP3      H1              2.4529734000        2.1407333626      -20.9260018198  TIP3      52              0.0000000000
     22408       244  TIP3      H2              1.9454561143        0.9202348564      -20.1434916771  TIP3      52              0.0000000000
     22409       245  TIP3      OH2             5.2018266734        5.3235525499      -18.9307491097  TIP3      53              0.0000000000
     22410       245  TIP3      H1              4.4491738422        5.8555907525      -18.6421604626  TIP3      53              0.0000000000
     22411       245  TIP3      H2              4.7942906607        4.5691550288      -19.3578084601  TIP3      53              0.0000000000
     22412       246  TIP3      OH2             7.2237210123       13.5785816974      -20.3722025742  TIP3      54              0.0000000000
     22413       246  TIP3      H1              7.1242284780       13.6685522028      -21.3317923862  TIP3      54              0.0000000000
     22414       246  TIP3      H2              6.4943950615       14.0796687615      -19.9926269445  TIP3      54              0.0000000000
     22415       247  TIP3      OH2             2.3927759524       14.6566143897      -19.9150225485  TIP3      55              0.0000000000
     22416       247  TIP3      H1              1.5785243095       14.3291049290      -19.5126501284  TIP3      55              0.0000000000
     22417       247  TIP3      H2              2.0852986898       15.3501212960      -20.5071717855  TIP3      55              0.0000000000
     22418       248  TIP3      OH2             5.0329801961       15.9670749500      -21.4500981742  TIP3      56              0.0000000000
     22419       248  TIP3      H1              4.2867501596       16.4952534662      -21.6737907427  TIP3      56              0.0000000000
     22420       248  TIP3      H2              4.7115136121       15.0446801391      -21.4446289084  TIP3      56              0.0000000000
     22421       249  TIP3      OH2             4.3934574500       13.2834348014      -21.6310132779  TIP3      57              0.0000000000
     22422       249  TIP3      H1              3.8490763417       13.3289097274      -20.8422224230  TIP3      57              0.0000000000
     22423       249  TIP3      H2              3.8947078789       12.8706822406      -22.3400997337  TIP3      57              0.0000000000
     22424       250  TIP3      OH2            -2.4088665396       15.4114276728      -21.4288491446  TIP3      58              0.0000000000
     22425       250  TIP3      H1             -2.6863200719       16.2399189337      -21.8418396573  TIP3      58              0.0000000000
     22426       250  TIP3      H2             -3.2429005181       14.9436983175      -21.2559386278  TIP3      58              0.0000000000
     22427       251  TIP3      OH2            -3.4982271454       13.8200411854      -18.6768952698  TIP3      59            -22.2800000000
     22428       251  TIP3      H1             -4.0708258251       13.4741487261      -19.3874837544  TIP3      59              0.0000000000
     22429       251  TIP3      H2             -2.8844746161       13.1304929542      -18.4808960471  TIP3      59              0.0000000000
     22430       252  TIP3      OH2            -0.2173615983       13.9483544883      -20.4129559116  TIP3      60              0.0000000000
     22431       252  TIP3      H1             -0.9029194944       14.5594742611      -20.7730762326  TIP3      60              0.0000000000
     22432       252  TIP3      H2              0.4336532968       13.9162877756      -21.1217075620  TIP3      60              0.0000000000
     22433       253  TIP3      OH2             0.7203605413       17.6249689428      -18.4464651256  TIP3      61              0.0000000000
     22434       253  TIP3      H1             -0.2437914424       17.5102716484      -18.2947751862  TIP3      61              0.0000000000
     22435       253  TIP3      H2              1.0070444981       16.7185609967      -18.5484529397  TIP3      61              0.0000000000
     22436       254  TIP3      OH2            -8.1508634054       20.0738426334      -19.7589757729  TIP3      62              0.0000000000
     22437       254  TIP3      H1             -8.7700581485       19.5944194851      -19.1787537826  TIP3      62              0.0000000000
     22438       254  TIP3      H2             -8.4936259779       20.9649681102      -19.7979675978  TIP3      62              0.0000000000
     22439       255  TIP3      OH2           -12.1390675139       18.1552078572      -20.4213648728  TIP3      63              0.0000000000
     22440       255  TIP3      H1            -12.6432198298       17.3490932812      -20.5006717988  TIP3      63              0.0000000000
     22441       255  TIP3      H2            -12.7351420052       18.8500793304      -20.1674078843  TIP3      63              0.0000000000
     22442       256  TIP3      OH2            13.8882386332      -16.4447139939      -21.9979391339  TIP3      64             22.8300000000
     22443       256  TIP3      H1             14.3807526524      -17.2680568946      -22.0884598005  TIP3      64              0.0000000000
     22444       256  TIP3      H2             14.4223432919      -15.9307725769      -21.3946961055  TIP3      64              0.0000000000
     22445       257  TIP3      OH2            16.1319399455      -19.7343362060      -19.5345299301  TIP3      65              0.0000000000
     22446       257  TIP3      H1             16.4287153971      -20.1886650807      -20.3307271127  TIP3      65              0.0000000000
     22447       257  TIP3      H2             16.7777755182      -20.1633645624      -18.9196877778  TIP3      65              0.0000000000
     22448       258  TIP3      OH2            13.4173413688      -20.3359714433      -18.6244333745  TIP3      66              0.0000000000
     22449       258  TIP3      H1             14.3025889276      -20.7112113678      -18.7367655966  TIP3      66              0.0000000000
     22450       258  TIP3      H2             12.8518997295      -21.1097511385      -18.5548823915  TIP3      66              0.0000000000
     22451       259  TIP3      OH2            24.7739374494        3.1315319469      -19.4750128503  TIP3      67            -31.2400000000
     22452       259  TIP3      H1             24.3111619940        3.9391409091      -19.1761524631  TIP3      67            -31.3700000000
     22453       259  TIP3      H2             24.1177993792        2.4526348212      -19.3408034919  TIP3      67            -32.1200000000
     22454       260  TIP3      OH2            11.6423103242      -21.4920376496      -20.0025955311  TIP3      68              0.0000000000
     22455       260  TIP3      H1             11.8375852331      -21.1819192325      -20.8918697548  TIP3      68              0.0000000000
     22456       260  TIP3      H2             12.2062746343      -20.8224280661      -19.5688343728  TIP3      68              0.0000000000
     22457       261  TIP3      OH2            10.4640354689      -26.2181188102      -19.8620703136  TIP3      69              0.0000000000
     22458       261  TIP3      H1             10.7608568068      -25.4833170693      -19.3122088848  TIP3      69              0.0000000000
     22459       261  TIP3      H2             10.0402627816      -26.6747104839      -19.1088726141  TIP3      69              0.0000000000
     22460       262  TIP3      OH2             7.9749114072      -23.6466969502      -20.8211132867  TIP3      70              0.0000000000
     22461       262  TIP3      H1              7.3292860939      -23.8459975148      -20.1246140825  TIP3      70              0.0000000000
     22462       262  TIP3      H2              8.7121811853      -23.3025806823      -20.2981186227  TIP3      70              0.0000000000
     22463       263  TIP3      OH2            23.2254789298      -14.9154734296      -21.1796290300  TIP3      71              0.0000000000
     22464       263  TIP3      H1             23.0482231847      -14.8727187007      -20.2168266215  TIP3      71              0.0000000000
     22465       263  TIP3      H2             23.7122628010      -15.7239806641      -21.3248298532  TIP3      71              0.0000000000
     22466       264  TIP3      OH2            20.8243790296      -13.0440454567      -18.9376496308  TIP3      72              0.0000000000
     22467       264  TIP3      H1             21.3736323219      -12.2646480954      -18.7896205515  TIP3      72              0.0000000000
     22468       264  TIP3      H2             21.3506345387      -13.7564771397      -18.5293916098  TIP3      72              0.0000000000
     22469       265  TIP3      OH2             5.2931530713      -31.7390380935      -18.7816046877  TIP3      73              0.0000000000
     22470       265  TIP3      H1              5.8306006423      -31.9612507233      -19.5284025418  TIP3      73              0.0000000000
     22471       265  TIP3      H2              5.4991922038      -30.8052189902      -18.6290045380  TIP3      73              0.0000000000
     22472       266  TIP3      OH2             7.3400387147      -27.1169799863      -19.7896587072  TIP3      74              0.0000000000
     22473       266  TIP3      H1              7.0497425712      -28.0250124666      -19.6141327146  TIP3      74              0.0000000000
     22474       266  TIP3      H2              7.8855684143      -26.8707737962      -19.0422990880  TIP3      74              0.0000000000
     22475       267  TIP3      OH2             4.7968825450      -26.9742772021      -21.6518026155  TIP3      75              0.0000000000
     22476       267  TIP3      H1              4.2366418971      -26.2045636793      -21.5099651281  TIP3      75              0.0000000000
     22477       267  TIP3      H2              5.4400827494      -26.6831149264      -22.3043780463  TIP3      75              0.0000000000
     22478       268  TIP3      OH2             7.0265710027       29.5229528861      -20.7420559092  TIP3      76              0.0000000000
     22479       268  TIP3      H1              6.2818775020       29.2244484425      -20.1783625995  TIP3      76              0.0000000000
     22480       268  TIP3      H2              7.7583640038       29.0818331466      -20.3115244237  TIP3      76              0.0000000000
     22481       269  TIP3      OH2             5.9028000644       27.0735287543      -19.1117441619  TIP3      77              0.0000000000
     22482       269  TIP3      H1              6.7403975265       27.5108866082      -18.8889386233  TIP3      77              0.0000000000
     22483       269  TIP3      H2              6.1019022806       26.6236774583      -19.9448539255  TIP3      77              0.0000000000
     22484       270  TIP3      OH2            28.8888812858       -9.8103737983      -21.2057314176  TIP3      78              0.0000000000
     22485       270  TIP3      H1             28.1524564895       -9.3115060420      -21.5556149746  TIP3      78              0.0000000000
     22486       270  TIP3      H2             28.8598077471       -9.5978435896      -20.2586045921  TIP3      78              0.0000000000
     22487       271  TIP3      OH2            25.8671573381       -9.8330713414      -20.0961965298  TIP3      79              0.0000000000
     22488       271  TIP3      H1             25.4563390359      -10.5224203696      -20.6216212794  TIP3      79              0.0000000000
     22489       271  TIP3      H2             25.1055200929       -9.2427926539      -19.9878962764  TIP3      79              0.0000000000
     22490       272  TIP3      OH2            27.6886234359       -6.8057991684      -18.2368067558  TIP3      80              0.0000000000
     22491       272  TIP3      H1             27.9192340779       -7.6101638767      -18.7126591373  TIP3      80              0.0000000000
     22492       272  TIP3      H2             28.5100642854       -6.4330350960      -17.9065635293  TIP3      80              0.0000000000
     22493       273  TIP3      OH2           -19.7123683825      -25.3950357082      -20.6758595845  TIP3      81              0.0000000000
     22494       273  TIP3      H1            -19.5273819325      -25.0480690885      -19.7865614386  TIP3      81              0.0000000000
     22495       273  TIP3      H2            -20.0781131164      -26.2612573573      -20.5263953988  TIP3      81              0.0000000000
     22496       274  TIP3      OH2            27.8442165071       12.6401070730      -20.2055377369  TIP3      82              0.0000000000
     22497       274  TIP3      H1             28.7063926238       12.7027616433      -20.6123568602  TIP3      82              0.0000000000
     22498       274  TIP3      H2             27.8661865688       11.7806073997      -19.7555154836  TIP3      82              0.0000000000
     22499       275  TIP3      OH2           -22.9435669626       20.4271885273      -19.2017752955  TIP3      83              0.0000000000
     22500       275  TIP3      H1            -22.4032957050       21.1935241611      -19.4148209341  TIP3      83              0.0000000000
     22501       275  TIP3      H2            -22.3729929490       19.6938746649      -19.4734650422  TIP3      83              0.0000000000
     22502       276  TIP3      OH2           -27.2958555508       22.5763491399      -20.4113570795  TIP3      84              0.0000000000
     22503       276  TIP3      H1            -27.7969820748       21.7625148363      -20.4698953475  TIP3      84              0.0000000000
     22504       276  TIP3      H2            -26.6997371534       22.4115010136      -19.6536186379  TIP3      84              0.0000000000
     22505       277  TIP3      OH2           -25.1558459348      -19.6416357216      -19.8396244509  TIP3      85              0.0000000000
     22506       277  TIP3      H1            -24.8107497535      -19.6076876581      -20.7340780183  TIP3      85              0.0000000000
     22507       277  TIP3      H2            -25.1005614746      -18.7149884708      -19.5604796667  TIP3      85              0.0000000000
     22508       278  TIP3      OH2           -27.9176578675      -23.7516290258      -19.6793891061  TIP3      86            -36.6800000000
     22509       278  TIP3      H1            -27.1776041828      -23.1473111898      -19.4582805036  TIP3      86            -36.8500000000
     22510       278  TIP3      H2            -28.3717995445      -23.7439317550      -18.8306321568  TIP3      86            -36.6400000000
     22511       279  TIP3      OH2            31.6594192818       -2.6751424290      -19.4764263102  TIP3      87              0.0000000000
     22512       279  TIP3      H1             31.3537658191       -2.1093923069      -20.1883137587  TIP3      87              0.0000000000
     22513       279  TIP3      H2             32.2629009451       -2.0855619585      -19.0012317993  TIP3      87              0.0000000000
     22514       280  TIP3      OH2            36.0006240353       -5.8183038417      -20.2544709944  TIP3      88              0.0000000000
     22515       280  TIP3      H1             36.9642117087       -5.8355800765      -20.3283101426  TIP3      88              0.0000000000
     22516       280  TIP3      H2             35.6965260461       -6.6132180391      -20.6719415789  TIP3      88              0.0000000000
     22517       281  TIP3      OH2            31.2962066402       -5.2260014534      -18.5768971635  TIP3      89              0.0000000000
     22518       281  TIP3      H1             31.2512594054       -4.2681765466      -18.7815020301  TIP3      89              0.0000000000
     22519       281  TIP3      H2             32.2518897674       -5.2953312091      -18.3972260362  TIP3      89              0.0000000000
     22520       282  TIP3      OH2             6.3683093890       34.3223441849      -19.3150922328  TIP3      90             23.1300000000
     22521       282  TIP3      H1              6.0358684175       33.4779128866      -18.9863736785  TIP3      90              0.0000000000
     22522       282  TIP3      H2              6.9534854940       34.0558175643      -20.0173473527  TIP3      90              0.0000000000
     22523       283  TIP3      OH2             4.8086534965      -34.9776126507      -20.6253652903  TIP3      91              0.0000000000
     22524       283  TIP3      H1              4.7825545768      -35.6908727048      -19.9771309109  TIP3      91              0.0000000000
     22525       283  TIP3      H2              4.5873990371      -34.2317902897      -20.0321056184  TIP3      91              0.0000000000
     22526       284  TIP3      OH2           -17.7799709295       32.0399596882      -20.6208557758  TIP3      92              0.0000000000
     22527       284  TIP3      H1            -17.9642490117       31.3106292039      -21.1970354945  TIP3      92              0.0000000000
     22528       284  TIP3      H2            -17.0730689535       31.8040301480      -20.0320872722  TIP3      92              0.0000000000
     22529       285  TIP3      OH2           -16.6342992327       35.0251091211      -20.7150563274  TIP3      93              0.0000000000
     22530       285  TIP3      H1            -16.1171732868       35.1272053887      -19.8934839003  TIP3      93              0.0000000000
     22531       285  TIP3      H2            -17.4858954369       35.4044485139      -20.4761199114  TIP3      93              0.0000000000
     22532       286  TIP3      OH2            13.1612576678       31.3387828643      -19.6827965701  TIP3      94              0.0000000000
     22533       286  TIP3      H1             13.6889748732       30.5537743104      -19.5821613520  TIP3      94              0.0000000000
     22534       286  TIP3      H2             12.2845523802       31.0661513697      -19.3841955244  TIP3      94              0.0000000000
     22535       287  TIP3      OH2            15.4207539844       32.9032397862      -20.3887600182  TIP3      95              0.0000000000
     22536       287  TIP3      H1             15.6352488713       32.1719409418      -20.9636405486  TIP3      95              0.0000000000
     22537       287  TIP3      H2             14.6679358518       32.5472151963      -19.8878794027  TIP3      95              0.0000000000
     22538       288  TIP3      OH2            14.8301477846       35.5667912399      -21.3390854366  TIP3      96              0.0000000000
     22539       288  TIP3      H1             15.1024881680       35.4333523797      -20.4141933042  TIP3      96              0.0000000000
     22540       288  TIP3      H2             15.0961029577       34.7211269912      -21.6925768827  TIP3      96              0.0000000000
     22541       289  TIP3      OH2            35.4832586754       -9.4624211387      -19.2409314436  TIP3      97              0.0000000000
     22542       289  TIP3      H1             35.6506454638       -9.5282170740      -20.1838397184  TIP3      97              0.0000000000
     22543       289  TIP3      H2             34.7774532108       -8.8199188818      -19.1450920546  TIP3      97              0.0000000000
     22544       290  TIP3      OH2            20.0138280931       34.0327241473      -20.0070522983  TIP3      98              0.0000000000
     22545       290  TIP3      H1             20.6152381532       33.4266175628      -19.5469829768  TIP3      98              0.0000000000
     22546       290  TIP3      H2             19.6697186209       33.5091370654      -20.7381972646  TIP3      98              0.0000000000
     22547       291  TIP3      OH2            31.4237510896      -26.2122102097      -20.1014348546  TIP3      99              0.0000000000
     22548       291  TIP3      H1             31.4767504070      -26.1205599791      -19.1416144966  TIP3      99              0.0000000000
     22549       291  TIP3      H2             30.5336643372      -26.6118572421      -20.1595481826  TIP3      99              0.0000000000
     22550       292  TIP3      OH2            33.2707683132      -22.4142193530      -21.0324266807  TIP3      100             0.0000000000
     22551       292  TIP3      H1             33.1308219585      -22.9594054037      -20.2306950993  TIP3      100             0.0000000000
     22552       292  TIP3      H2             32.7895185160      -21.6228653752      -20.8198493204  TIP3      100             0.0000000000
     22553       293  TIP3      OH2            29.7098100464      -24.4128796875      -19.2952111903  TIP3      101             0.0000000000
     22554       293  TIP3      H1             29.0865397701      -24.9197045806      -19.8161591397  TIP3      101             0.0000000000
     22555       293  TIP3      H2             29.1370659522      -24.0103854883      -18.6116682822  TIP3      101             0.0000000000
     22556       294  TIP3      OH2           -21.9194866527       36.1493348715      -21.6268733202  TIP3      102             0.0000000000
     22557       294  TIP3      H1            -21.9974497653       36.5158755734      -20.7313731947  TIP3      102             0.0000000000
     22558       294  TIP3      H2            -20.9674828925       35.9088512533      -21.5995201001  TIP3      102             0.0000000000
     22559       295  TIP3      OH2           -24.3500556556       34.0440149950      -19.4734612692  TIP3      103             0.0000000000
     22560       295  TIP3      H1            -24.5081987975       33.1801259850      -19.8443294846  TIP3      103             0.0000000000
     22561       295  TIP3      H2            -25.2457632986       34.3476518991      -19.2486375191  TIP3      103             0.0000000000
     22562       296  TIP3      OH2           -31.0005371819       35.5669728716      -20.3119842340  TIP3      104             0.0000000000
     22563       296  TIP3      H1            -30.3910023236       35.8351826701      -21.0171353119  TIP3      104             0.0000000000
     22564       296  TIP3      H2            -30.7716219133       36.2365052772      -19.6502670900  TIP3      104             0.0000000000
     22565       297  TIP3      OH2           -30.0924544504      -32.3430292837      -20.1015102914  TIP3      105             0.0000000000
     22566       297  TIP3      H1            -30.4861734848      -32.7465045479      -20.8690026592  TIP3      105             0.0000000000
     22567       297  TIP3      H2            -29.4907129983      -31.6893920430      -20.4819066937  TIP3      105             0.0000000000
     22568       298  TIP3      OH2            35.3720861820      -36.0102923275      -20.7172169297  TIP3      106             0.0000000000
     22569       298  TIP3      H1             35.8494856122      -36.4417903222      -19.9857665857  TIP3      106             0.0000000000
     22570       298  TIP3      H2             34.4875406396      -35.9144644781      -20.3779116209  TIP3      106             0.0000000000
     22571       299  TIP3      OH2           -24.6734318142      -26.4544028737       26.7968088220  TIP3      107             0.0000000000
     22572       299  TIP3      H1            -24.6514774717      -25.4794432554       26.7655064339  TIP3      107             0.0000000000
     22573       299  TIP3      H2            -25.3785520815      -26.6946305302       26.2077398459  TIP3      107             0.0000000000
     22574       300  TIP3      OH2           -25.8190683830      -27.1947540252       30.2752963260  TIP3      108             0.0000000000
     22575       300  TIP3      H1            -25.8131082128      -27.8418608931       30.9908577189  TIP3      108             0.0000000000
     22576       300  TIP3      H2            -26.1459889807      -27.7114561161       29.5233942333  TIP3      108             0.0000000000
     22577       301  TIP3      OH2           -33.3950117442      -27.5438461477       31.8170739766  TIP3      109             0.0000000000
     22578       301  TIP3      H1            -33.3369698322      -28.2130225506       32.5315326752  TIP3      109             0.0000000000
     22579       301  TIP3      H2            -32.6900758199      -26.9421795360       32.0856204184  TIP3      109             0.0000000000
     22580       302  TIP3      OH2           -22.1293942750      -24.2452912258       28.5590298073  TIP3      110             0.0000000000
     22581       302  TIP3      H1            -22.5109470603      -24.9775102983       29.0592679674  TIP3      110             0.0000000000
     22582       302  TIP3      H2            -22.0813602575      -23.5524485042       29.2432227159  TIP3      110             0.0000000000
     22583       303  TIP3      OH2           -32.5072418084      -23.1001614741       30.3620050371  TIP3      111             0.0000000000
     22584       303  TIP3      H1            -32.8509750438      -23.9477462470       30.0181503074  TIP3      111             0.0000000000
     22585       303  TIP3      H2            -31.5745589013      -23.3294594795       30.4349473088  TIP3      111             0.0000000000
     22586       304  TIP3      OH2           -35.5978097430      -29.4909910263       25.3872315787  TIP3      112             0.0000000000
     22587       304  TIP3      H1            -36.0844720422      -28.7192989572       25.7789153103  TIP3      112             0.0000000000
     22588       304  TIP3      H2            -36.3760433072      -30.0455676678       25.4224947450  TIP3      112             0.0000000000
     22589       305  TIP3      OH2           -35.1860103202      -27.3449965427       27.9429180571  TIP3      113             0.0000000000
     22590       305  TIP3      H1            -34.9058652078      -28.1155737486       28.4564222838  TIP3      113             0.0000000000
     22591       305  TIP3      H2            -34.4558116256      -27.1871893656       27.3325406492  TIP3      113             0.0000000000
     22592       306  TIP3      OH2           -24.9395330596      -19.0607383627       28.8352950856  TIP3      114             0.0000000000
     22593       306  TIP3      H1            -24.3707209359      -19.8017851727       28.5102414366  TIP3      114             0.0000000000
     22594       306  TIP3      H2            -25.2205133317      -19.4323003890       29.6671431522  TIP3      114             0.0000000000
     22595       307  TIP3      OH2           -27.4130085222      -24.8099876201       30.7543974864  TIP3      115             0.0000000000
     22596       307  TIP3      H1            -27.0793657714      -25.4424758277       30.0998482795  TIP3      115             0.0000000000
     22597       307  TIP3      H2            -26.6136420363      -24.6419812075       31.2726540248  TIP3      115             0.0000000000
     22598       308  TIP3      OH2           -18.8061750597      -33.1444344532       31.4876255352  TIP3      116             0.0000000000
     22599       308  TIP3      H1            -18.6408119603      -32.5623484025       32.2632404244  TIP3      116             0.0000000000
     22600       308  TIP3      H2            -18.2626604744      -32.7113527321       30.8183424159  TIP3      116             0.0000000000
     22601       309  TIP3      OH2           -24.2553372025      -30.3343717822       31.0699086210  TIP3      117             0.0000000000
     22602       309  TIP3      H1            -24.1020517194      -31.3032699754       31.0703817102  TIP3      117             0.0000000000
     22603       309  TIP3      H2            -24.3513358293      -30.1809494672       30.1072108225  TIP3      117             0.0000000000
     22604       310  TIP3      OH2           -31.1287061848      -32.2452461141       28.2948752028  TIP3      118             0.0000000000
     22605       310  TIP3      H1            -31.0201971274      -31.4075395080       27.8106643351  TIP3      118             0.0000000000
     22606       310  TIP3      H2            -31.5410154878      -32.7973572988       27.5967524990  TIP3      118             0.0000000000
     22607       311  TIP3      OH2           -23.3877884155      -32.1962898916       26.6401140200  TIP3      119             0.0000000000
     22608       311  TIP3      H1            -22.7404648060      -32.4560080082       27.3360403235  TIP3      119             0.0000000000
     22609       311  TIP3      H2            -22.8428391348      -31.6022941186       26.1074681476  TIP3      119             0.0000000000
     22610       312  TIP3      OH2           -34.5419544918      -29.9132649365       28.9771619461  TIP3      120             0.0000000000
     22611       312  TIP3      H1            -33.8217401678      -30.3930735535       29.4410695599  TIP3      120             0.0000000000
     22612       312  TIP3      H2            -34.3806684628      -30.1926492635       28.0735575213  TIP3      120             0.0000000000
     22613       313  TIP3      OH2           -29.3402088705      -28.3005944699       28.3399360747  TIP3      121             0.0000000000
     22614       313  TIP3      H1            -28.6878114875      -28.8717414901       28.7700165862  TIP3      121             0.0000000000
     22615       313  TIP3      H2            -29.8796653683      -28.9530084408       27.8482181270  TIP3      121             0.0000000000
     22616       314  TIP3      OH2           -18.3657821271      -31.7323007138       33.7626947887  TIP3      122             0.0000000000
     22617       314  TIP3      H1            -19.0045375817      -30.9957999999       33.6636420047  TIP3      122             0.0000000000
     22618       314  TIP3      H2            -18.3469258714      -31.8517411350       34.7199418621  TIP3      122             0.0000000000
     22619       315  TIP3      OH2           -32.2039442213      -33.3157297702       32.3139057151  TIP3      123             0.0000000000
     22620       315  TIP3      H1            -32.5326310305      -32.7593259626       31.5800860714  TIP3      123             0.0000000000
     22621       315  TIP3      H2            -32.9043749824      -33.1244873816       32.9939758378  TIP3      123             0.0000000000
     22622       316  TIP3      OH2           -24.9093469144      -23.8784413050       25.8360011256  TIP3      124             0.0000000000
     22623       316  TIP3      H1            -25.2744236100      -24.1427289779       24.9859183980  TIP3      124             0.0000000000
     22624       316  TIP3      H2            -25.1954572550      -22.9526750315       25.9375710411  TIP3      124             0.0000000000
     22625       317  TIP3      OH2           -29.6914965662      -25.7063324583       32.6083795471  TIP3      125             0.0000000000
     22626       317  TIP3      H1            -30.4218921757      -25.0724836743       32.7771982109  TIP3      125             0.0000000000
     22627       317  TIP3      H2            -29.0060772858      -25.1072366268       32.2730545932  TIP3      125             0.0000000000
     22628       318  TIP3      OH2           -21.5836009100      -32.8356143744       28.6348321089  TIP3      126             0.0000000000
     22629       318  TIP3      H1            -21.8275063842      -33.5806780463       29.1984003622  TIP3      126             0.0000000000
     22630       318  TIP3      H2            -20.9292060346      -32.3858100920       29.1911975834  TIP3      126             0.0000000000
     22631       319  TIP3      OH2           -32.6973014916      -31.4611974077       30.3360709326  TIP3      127             0.0000000000
     22632       319  TIP3      H1            -32.0517366228      -30.8084135295       30.6905280434  TIP3      127             0.0000000000
     22633       319  TIP3      H2            -32.1478151783      -31.8959793900       29.6325411075  TIP3      127             0.0000000000
     22634       320  TIP3      OH2           -31.2808142518      -23.7157463540       33.3704006315  TIP3      128             0.0000000000
     22635       320  TIP3      H1            -31.3251511469      -22.7912868548       33.0537343959  TIP3      128             0.0000000000
     22636       320  TIP3      H2            -32.1575729724      -23.7940631794       33.8210840066  TIP3      128             0.0000000000
     22637       321  TIP3      OH2           -35.1387512912      -24.0464052535       24.1474864502  TIP3      129             0.0000000000
     22638       321  TIP3      H1            -35.4929187415      -23.7992992618       23.2853753561  TIP3      129             0.0000000000
     22639       321  TIP3      H2            -35.1190768981      -23.2241856501       24.6569966977  TIP3      129             0.0000000000
     22640       322  TIP3      OH2           -21.5756210710      -22.4201270780       30.9558624414  TIP3      130             0.0000000000
     22641       322  TIP3      H1            -22.5441191890      -22.3141683698       31.0663877726  TIP3      130             0.0000000000
     22642       322  TIP3      H2            -21.3155514210      -21.5041735595       30.7381027838  TIP3      130             0.0000000000
     22643       323  TIP3      OH2           -21.2173922499      -34.0964132355       32.4217939327  TIP3      131             0.0000000000
     22644       323  TIP3      H1            -21.9892662393      -33.5487023814       32.2370349827  TIP3      131             0.0000000000
     22645       323  TIP3      H2            -20.5519641004      -33.7389284025       31.8054757414  TIP3      131             0.0000000000
     22646       324  TIP3      OH2           -28.3714003802      -35.9295032786       29.8986508610  TIP3      132             0.0000000000
     22647       324  TIP3      H1            -28.4713216946      -36.8814070115       30.0468227368  TIP3      132             0.0000000000
     22648       324  TIP3      H2            -29.2623862093      -35.6346206119       30.1953519621  TIP3      132             0.0000000000
     22649       325  TIP3      OH2           -23.3387086035      -20.6439979708       27.5162732472  TIP3      133             0.0000000000
     22650       325  TIP3      H1            -22.8554032205      -21.3457703028       27.0499851709  TIP3      133             0.0000000000
     22651       325  TIP3      H2            -22.9145552263      -19.8427237299       27.1417049266  TIP3      133             0.0000000000
     22652       326  TIP3      OH2           -22.1095101744      -22.6978908204       26.0441327720  TIP3      134             0.0000000000
     22653       326  TIP3      H1            -22.3980723832      -23.4236369633       25.4830453040  TIP3      134             0.0000000000
     22654       326  TIP3      H2            -22.0636089540      -23.1741402403       26.8993148292  TIP3      134             0.0000000000
     22655       327  TIP3      OH2           -20.4919753210      -24.1157154630       34.5445911852  TIP3      135             0.0000000000
     22656       327  TIP3      H1            -20.3517314906      -24.7628880810       33.8202503356  TIP3      135             0.0000000000
     22657       327  TIP3      H2            -20.2919546069      -23.2690550158       34.1087484242  TIP3      135             0.0000000000
     22658       328  TIP3      OH2           -18.6095660862      -27.8050234405       32.5878994070  TIP3      136             0.0000000000
     22659       328  TIP3      H1            -19.2684223190      -27.0834285388       32.6317229923  TIP3      136             0.0000000000
     22660       328  TIP3      H2            -18.1193024595      -27.5737619418       31.7782441881  TIP3      136             0.0000000000
     22661       329  TIP3      OH2           -22.6285939278      -28.8470097944       34.3446641219  TIP3      137             0.0000000000
     22662       329  TIP3      H1            -22.6165774889      -28.0296375957       34.8702778265  TIP3      137             0.0000000000
     22663       329  TIP3      H2            -23.2571839832      -28.5528519238       33.6545091551  TIP3      137             0.0000000000
     22664       330  TIP3      OH2           -30.9360546888      -26.3599739934       27.1527945798  TIP3      138             0.0000000000
     22665       330  TIP3      H1            -31.2682020517      -26.7500766050       26.3247048247  TIP3      138             0.0000000000
     22666       330  TIP3      H2            -30.3163069221      -27.0446822602       27.4892374892  TIP3      138             0.0000000000
     22667       331  TIP3      OH2           -30.5796995492      -27.6212020683       30.8040548745  TIP3      139             0.0000000000
     22668       331  TIP3      H1            -30.0428809875      -27.4869465945       30.0003989268  TIP3      139             0.0000000000
     22669       331  TIP3      H2            -30.2288800888      -26.9396778434       31.4191238914  TIP3      139             0.0000000000
     22670       332  TIP3      OH2           -24.2341584397      -22.0269222413       31.4859539593  TIP3      140             0.0000000000
     22671       332  TIP3      H1            -24.4731848918      -21.4038517920       32.1723172466  TIP3      140             0.0000000000
     22672       332  TIP3      H2            -24.4565598609      -22.8971997255       31.9026171348  TIP3      140             0.0000000000
     22673       333  TIP3      OH2           -29.6299525474      -23.1487720730       35.4672497642  TIP3      141             0.0000000000
     22674       333  TIP3      H1            -30.0787997941      -22.4396226231       35.9739371939  TIP3      141             0.0000000000
     22675       333  TIP3      H2            -30.3261116772      -23.3850205094       34.8017230283  TIP3      141             0.0000000000
     22676       334  TIP3      OH2           -32.7210618533      -27.0022948266       34.6822380681  TIP3      142             0.0000000000
     22677       334  TIP3      H1            -32.6784999150      -26.3300086161       35.3847869244  TIP3      142             0.0000000000
     22678       334  TIP3      H2            -33.6579496486      -26.9083183078       34.4407014456  TIP3      142             0.0000000000
     22679       335  TIP3      OH2           -31.3906143079      -21.1544486430       36.2441042949  TIP3      143             0.0000000000
     22680       335  TIP3      H1            -31.4861864877      -21.2388829465       35.2763984816  TIP3      143             0.0000000000
     22681       335  TIP3      H2            -32.3269255747      -21.2702115738       36.5127801092  TIP3      143             0.0000000000
     22682       336  TIP3      OH2           -19.9899289803      -35.9093149442       22.5666339238  TIP3      144             0.0000000000
     22683       336  TIP3      H1            -20.8659986733      -35.8955520141       23.0116324243  TIP3      144             0.0000000000
     22684       336  TIP3      H2            -19.7676596214      -35.0098990824       22.3104681232  TIP3      144             0.0000000000
     22685       337  TIP3      OH2           -31.8871268070      -27.3405068577       24.6642286180  TIP3      145             0.0000000000
     22686       337  TIP3      H1            -32.2322740967      -26.4982408499       24.3113675123  TIP3      145             0.0000000000
     22687       337  TIP3      H2            -32.6246618215      -27.9594981848       24.6558107875  TIP3      145             0.0000000000
     22688       338  TIP3      OH2           -35.2999562358      -25.0330982935       33.3933975406  TIP3      146             0.0000000000
     22689       338  TIP3      H1            -36.0797033346      -24.9117838618       32.8104822502  TIP3      146             0.0000000000
     22690       338  TIP3      H2            -35.6803160258      -25.8147532989       33.8587567711  TIP3      146             0.0000000000
     22691       339  TIP3      OH2           -35.8346398794      -21.9461748154       30.1752768337  TIP3      147             0.0000000000
     22692       339  TIP3      H1            -35.0027881984      -22.3272219672       30.4539086972  TIP3      147             0.0000000000
     22693       339  TIP3      H2            -36.1168677556      -21.4561921821       30.9624190667  TIP3      147             0.0000000000
     22694       340  TIP3      OH2           -17.8913096283      -21.4636932195       36.0917648093  TIP3      148             0.0000000000
     22695       340  TIP3      H1            -17.9938567993      -22.4257156312       36.1015554464  TIP3      148             0.0000000000
     22696       340  TIP3      H2            -18.7435190543      -21.2194727892       36.5280053819  TIP3      148             0.0000000000
     22697       341  TIP3      OH2           -26.8930153939      -21.9535523808       35.1110588459  TIP3      149             0.0000000000
     22698       341  TIP3      H1            -26.9836302670      -21.0163674855       35.3543090244  TIP3      149             0.0000000000
     22699       341  TIP3      H2            -27.8161449817      -22.2903864611       35.1836784664  TIP3      149             0.0000000000
     22700       342  TIP3      OH2           -26.3665730929      -18.1601600780       24.7551393739  TIP3      150             0.0000000000
     22701       342  TIP3      H1            -26.6166002321      -18.2568344023       23.8184097443  TIP3      150             0.0000000000
     22702       342  TIP3      H2            -26.4840231155      -17.2114384728       24.9440790850  TIP3      150             0.0000000000
     22703       343  TIP3      OH2           -32.9050985991      -19.2551360456       26.6422728600  TIP3      151             0.0000000000
     22704       343  TIP3      H1            -32.6966008573      -19.7335917982       27.4591710287  TIP3      151             0.0000000000
     22705       343  TIP3      H2            -33.6665567741      -19.7406028981       26.3047667948  TIP3      151             0.0000000000
     22706       344  TIP3      OH2           -23.4466368959      -19.0032684375       21.7474445512  TIP3      152             0.0000000000
     22707       344  TIP3      H1            -23.0044880386      -19.7490465553       21.3413993390  TIP3      152             0.0000000000
     22708       344  TIP3      H2            -23.4260821461      -19.1981877497       22.7047986484  TIP3      152             0.0000000000
     22709       345  TIP3      OH2           -23.7231159453      -19.0514412866       24.5298663930  TIP3      153             0.0000000000
     22710       345  TIP3      H1            -24.6791260943      -18.9224487327       24.7299896869  TIP3      153             0.0000000000
     22711       345  TIP3      H2            -23.4901597134      -19.7495626908       25.1519787618  TIP3      153             0.0000000000
     22712       346  TIP3      OH2           -20.7401675106      -30.0050060136       36.5780418647  TIP3      154             0.0000000000
     22713       346  TIP3      H1            -21.2067421162      -29.5446346491       35.8637989806  TIP3      154             0.0000000000
     22714       346  TIP3      H2            -20.7456551769      -30.9263140430       36.2782878882  TIP3      154             0.0000000000
     22715       347  TIP3      OH2           -33.5810316551      -23.5157278219       34.6520675686  TIP3      155             0.0000000000
     22716       347  TIP3      H1            -33.3935040827      -23.9548340724       35.5001526594  TIP3      155             0.0000000000
     22717       347  TIP3      H2            -34.4174909624      -23.9614958841       34.3766333416  TIP3      155             0.0000000000
     22718       348  TIP3      OH2           -30.9285023689      -35.1307424575       30.5443029229  TIP3      156             0.0000000000
     22719       348  TIP3      H1            -31.8454715890      -35.2055249344       30.1941235973  TIP3      156             0.0000000000
     22720       348  TIP3      H2            -31.0514310670      -34.2928923638       31.0285606160  TIP3      156             0.0000000000
     22721       349  TIP3      OH2           -26.3227144491      -35.3926373313       33.9568071392  TIP3      157             0.0000000000
     22722       349  TIP3      H1            -25.8514550942      -35.8555030698       34.6534850655  TIP3      157             0.0000000000
     22723       349  TIP3      H2            -27.2594818568      -35.5523258525       34.1232390983  TIP3      157             0.0000000000
     22724       350  TIP3      OH2           -22.9832525106      -31.6433353740       34.7971988858  TIP3      158             0.0000000000
     22725       350  TIP3      H1            -23.5527582014      -31.7952839913       35.5887096194  TIP3      158             0.0000000000
     22726       350  TIP3      H2            -23.1477527030      -30.7116551193       34.5640501935  TIP3      158             0.0000000000
     22727       351  TIP3      OH2           -30.8299417844      -30.1566151585       31.7822261756  TIP3      159             0.0000000000
     22728       351  TIP3      H1            -31.5444821888      -30.1515132134       32.4450307284  TIP3      159             0.0000000000
     22729       351  TIP3      H2            -30.8453835959      -29.2356451388       31.4303620864  TIP3      159             0.0000000000
     22730       352  TIP3      OH2           -30.8437786469      -29.9911826631       26.6493957815  TIP3      160             0.0000000000
     22731       352  TIP3      H1            -31.7774623821      -30.2679913307       26.5225719866  TIP3      160             0.0000000000
     22732       352  TIP3      H2            -30.4599277566      -30.3461312539       25.8225579356  TIP3      160             0.0000000000
     22733       353  TIP3      OH2           -25.3609226691      -29.5390434719       25.3758321123  TIP3      161             0.0000000000
     22734       353  TIP3      H1            -25.7418399362      -28.7108337653       25.0878829552  TIP3      161             0.0000000000
     22735       353  TIP3      H2            -24.6191548831      -29.7127637402       24.7704273333  TIP3      161             0.0000000000
     22736       354  TIP3      OH2           -26.2700089836      -29.2980209291       36.8757706070  TIP3      162             0.0000000000
     22737       354  TIP3      H1            -26.8001045650      -30.0786194147       37.1753988237  TIP3      162             0.0000000000
     22738       354  TIP3      H2            -25.4346556626      -29.4349696993       37.3515637233  TIP3      162             0.0000000000
     22739       355  TIP3      OH2           -24.3015411126      -30.0266677066       28.2555912403  TIP3      163             0.0000000000
     22740       355  TIP3      H1            -24.5617957942      -29.4685052792       27.5087435234  TIP3      163             0.0000000000
     22741       355  TIP3      H2            -24.1973033511      -30.8868461351       27.8095868597  TIP3      163             0.0000000000
     22742       356  TIP3      OH2           -33.1658309889      -29.8885599667       33.4905636825  TIP3      164             0.0000000000
     22743       356  TIP3      H1            -33.1582664398      -29.4737262674       34.3663285888  TIP3      164             0.0000000000
     22744       356  TIP3      H2            -33.6643431429      -30.6969857092       33.6767495943  TIP3      164             0.0000000000
     22745       357  TIP3      OH2           -36.1993999135      -32.4871058196       27.2582031642  TIP3      165             0.0000000000
     22746       357  TIP3      H1            -35.8279862405      -32.7737461242       28.1294709596  TIP3      165             0.0000000000
     22747       357  TIP3      H2            -35.9979082534      -33.2240496840       26.6990805289  TIP3      165             0.0000000000
     22748       358  TIP3      OH2           -35.0861750516      -31.7702443021       23.2383657489  TIP3      166             0.0000000000
     22749       358  TIP3      H1            -34.7006319386      -31.5202862519       22.3901907632  TIP3      166             0.0000000000
     22750       358  TIP3      H2            -36.0073417620      -31.5074697361       23.1582677450  TIP3      166             0.0000000000
     22751       359  TIP3      OH2           -25.1018955890      -28.4403139981       32.8390508191  TIP3      167             0.0000000000
     22752       359  TIP3      H1            -24.7245772541      -29.1256049060       32.2492147683  TIP3      167             0.0000000000
     22753       359  TIP3      H2            -25.5618502676      -28.9745705183       33.5124674649  TIP3      167             0.0000000000
     22754       360  TIP3      OH2           -28.3066205178      -32.5344722896       27.6644803710  TIP3      168             0.0000000000
     22755       360  TIP3      H1            -29.2404487808      -32.4535710039       27.9696576366  TIP3      168             0.0000000000
     22756       360  TIP3      H2            -27.8077776920      -32.5859466971       28.4936643451  TIP3      168             0.0000000000
     22757       361  TIP3      OH2           -33.4560509446      -30.8729130539       26.4720950167  TIP3      169             0.0000000000
     22758       361  TIP3      H1            -34.3779461529      -30.7806677190       26.1673706402  TIP3      169             0.0000000000
     22759       361  TIP3      H2            -33.2095032242      -31.7523451944       26.1380173251  TIP3      169             0.0000000000
     22760       362  TIP3      OH2           -29.8778761685      -30.8207901928       24.1839918690  TIP3      170             0.0000000000
     22761       362  TIP3      H1            -28.9111048092      -30.8264208259       24.3394950505  TIP3      170             0.0000000000
     22762       362  TIP3      H2            -30.0135141483      -30.1959149808       23.4776816677  TIP3      170             0.0000000000
     22763       363  TIP3      OH2           -23.9000192748      -33.1977163307       30.8876895389  TIP3      171             0.0000000000
     22764       363  TIP3      H1            -24.5643809430      -33.1954897513       31.6098538153  TIP3      171             0.0000000000
     22765       363  TIP3      H2            -24.3861833856      -33.5305815559       30.1291517165  TIP3      171             0.0000000000
     22766       364  TIP3      OH2           -20.7088100323      -17.5613323953       37.2798568427  TIP3      172             0.0000000000
     22767       364  TIP3      H1            -20.4013272595      -17.2315722862       36.4106794690  TIP3      172             0.0000000000
     22768       364  TIP3      H2            -19.9526777054      -17.2895791994       37.8318508607  TIP3      172             0.0000000000
     22769       365  TIP3      OH2           -33.0228386006      -25.1603723872       36.8359999893  TIP3      173             0.0000000000
     22770       365  TIP3      H1            -32.2995069146      -24.8737683005       37.4274909200  TIP3      173             0.0000000000
     22771       365  TIP3      H2            -33.7936559783      -24.9964568592       37.3977906400  TIP3      173             0.0000000000
     22772       366  TIP3      OH2           -27.0097025488      -29.7252594500       29.5457745073  TIP3      174             0.0000000000
     22773       366  TIP3      H1            -26.4024119853      -30.2717897365       29.0359246913  TIP3      174             0.0000000000
     22774       366  TIP3      H2            -27.1591822438      -30.2550044787       30.3426208098  TIP3      174             0.0000000000
     22775       367  TIP3      OH2           -32.0292309719      -33.5270010601       25.9771297171  TIP3      175             0.0000000000
     22776       367  TIP3      H1            -32.3197367771      -34.4528912934       25.9743300828  TIP3      175             0.0000000000
     22777       367  TIP3      H2            -31.2410874785      -33.5881251770       25.4188437488  TIP3      175             0.0000000000
     22778       368  TIP3      OH2           -28.3665779124      -31.3446336797       31.9598224589  TIP3      176             0.0000000000
     22779       368  TIP3      H1            -29.2092288943      -30.8605322747       32.0736889412  TIP3      176             0.0000000000
     22780       368  TIP3      H2            -27.8232313042      -31.0310398866       32.7086331334  TIP3      176             0.0000000000
     22781       369  TIP3      OH2           -27.7628918711      -25.1386590922       23.6956036977  TIP3      177             0.0000000000
     22782       369  TIP3      H1            -28.5536158783      -25.5988106473       23.3341035881  TIP3      177             0.0000000000
     22783       369  TIP3      H2            -27.9788954402      -25.0508665034       24.6160048987  TIP3      177             0.0000000000
     22784       370  TIP3      OH2           -20.6087211185      -25.9646423040       32.4767531125  TIP3      178             0.0000000000
     22785       370  TIP3      H1            -20.0382248419      -25.4831709879       31.8507166124  TIP3      178             0.0000000000
     22786       370  TIP3      H2            -21.4663444934      -25.9097251861       32.0079040490  TIP3      178             0.0000000000
     22787       371  TIP3      OH2           -26.2555074998      -24.8941670372       34.9441019538  TIP3      179             0.0000000000
     22788       371  TIP3      H1            -26.6607665620      -25.3420659699       35.6967344155  TIP3      179             0.0000000000
     22789       371  TIP3      H2            -26.5777690478      -23.9930118637       34.9917450499  TIP3      179             0.0000000000
     22790       372  TIP3      OH2           -23.2116301460      -30.4245303082       23.5398734354  TIP3      180             0.0000000000
     22791       372  TIP3      H1            -22.3071688573      -30.5928388892       23.8854063715  TIP3      180             0.0000000000
     22792       372  TIP3      H2            -23.1118874777      -29.6915639304       22.9351782713  TIP3      180             0.0000000000
     22793       373  TIP3      OH2           -32.6961648220      -25.7691844483       29.4416216448  TIP3      181             0.0000000000
     22794       373  TIP3      H1            -31.9849320878      -25.8619962494       28.7857986117  TIP3      181             0.0000000000
     22795       373  TIP3      H2            -32.6048310402      -26.6055280629       29.9331451489  TIP3      181             0.0000000000
     22796       374  TIP3      OH2           -35.7156654945      -27.3812081790       34.7369505632  TIP3      182             0.0000000000
     22797       374  TIP3      H1            -35.4608487468      -27.8203267986       35.5710384393  TIP3      182             0.0000000000
     22798       374  TIP3      H2            -36.3072394842      -28.0165667723       34.3104561836  TIP3      182             0.0000000000
     22799       375  TIP3      OH2           -28.6784347154      -27.8048612321       36.9171420835  TIP3      183             0.0000000000
     22800       375  TIP3      H1            -28.9909036666      -28.1043042858       36.0529865578  TIP3      183             0.0000000000
     22801       375  TIP3      H2            -27.7497487506      -28.1172535911       36.9138052228  TIP3      183             0.0000000000
     22802       376  TIP3      OH2           -24.0085577032      -22.4571511838       34.8410206124  TIP3      184             0.0000000000
     22803       376  TIP3      H1            -24.9308674101      -22.3114145740       34.5895460673  TIP3      184             0.0000000000
     22804       376  TIP3      H2            -23.9693049959      -22.2150670965       35.7805804509  TIP3      184             0.0000000000
     22805       377  TIP3      OH2           -18.4423108128      -30.2163137432       23.3061705653  TIP3      185             0.0000000000
     22806       377  TIP3      H1            -18.8456960850      -30.6107725830       22.5196537318  TIP3      185             0.0000000000
     22807       377  TIP3      H2            -18.2057039032      -29.3259837967       22.9678190947  TIP3      185             0.0000000000
     22808       378  TIP3      OH2           -18.3339338253      -24.4291442521       36.0617751722  TIP3      186             0.0000000000
     22809       378  TIP3      H1            -19.2246962324      -24.2055347585       35.6962488767  TIP3      186             0.0000000000
     22810       378  TIP3      H2            -17.7858895978      -24.4731187797       35.2522479837  TIP3      186             0.0000000000
     22811       379  TIP3      OH2           -20.0671898411      -21.4599273665       23.6315072929  TIP3      187             0.0000000000
     22812       379  TIP3      H1            -20.3638669565      -22.2924487172       24.0182550658  TIP3      187             0.0000000000
     22813       379  TIP3      H2            -19.7070567693      -21.6606109163       22.7660824974  TIP3      187             0.0000000000
     22814       380  TIP3      OH2           -22.8248103941      -26.6391690022       30.7517830817  TIP3      188             0.0000000000
     22815       380  TIP3      H1            -23.7664784452      -26.8573234839       30.6489570540  TIP3      188             0.0000000000
     22816       380  TIP3      H2            -22.3958725100      -27.4062965661       30.3260643777  TIP3      188             0.0000000000
     22817       381  TIP3      OH2           -28.4255666933      -20.4733029898       32.7581615195  TIP3      189             0.0000000000
     22818       381  TIP3      H1            -27.9900081758      -19.6460025227       32.4903326126  TIP3      189             0.0000000000
     22819       381  TIP3      H2            -27.8183516841      -20.8059201942       33.4284893853  TIP3      189             0.0000000000
     22820       382  TIP3      OH2           -24.8914015869      -24.4299836229       32.4370075882  TIP3      190             0.0000000000
     22821       382  TIP3      H1            -25.2431914386      -24.6786567937       33.3124606508  TIP3      190             0.0000000000
     22822       382  TIP3      H2            -24.2844126582      -25.1607114402       32.2318928290  TIP3      190             0.0000000000
     22823       383  TIP3      OH2           -22.1760223870      -19.8368900129       34.9276611337  TIP3      191             0.0000000000
     22824       383  TIP3      H1            -22.7566359630      -20.3957328059       34.3783266130  TIP3      191             0.0000000000
     22825       383  TIP3      H2            -21.8865156010      -19.1983375994       34.2362592072  TIP3      191             0.0000000000
     22826       384  TIP3      OH2           -18.1365360855      -19.0053645325       21.7183393591  TIP3      192             0.0000000000
     22827       384  TIP3      H1            -17.3872980207      -18.4016496571       21.5511683017  TIP3      192             0.0000000000
     22828       384  TIP3      H2            -18.8353157361      -18.4169510554       22.0683384754  TIP3      192             0.0000000000
     22829       385  TIP3      OH2           -34.0349295843      -32.6463450539       34.2666296373  TIP3      193             0.0000000000
     22830       385  TIP3      H1            -34.9243777413      -32.2677713018       34.3250955068  TIP3      193             0.0000000000
     22831       385  TIP3      H2            -34.1771908923      -33.5001614606       34.7145440361  TIP3      193             0.0000000000
     22832       386  TIP3      OH2           -34.2468546210      -20.7966122408       32.6647001181  TIP3      194             0.0000000000
     22833       386  TIP3      H1            -34.1696598417      -21.7559322519       32.7381954604  TIP3      194             0.0000000000
     22834       386  TIP3      H2            -34.1682228355      -20.5578749427       33.5948744029  TIP3      194             0.0000000000
     22835       387  TIP3      OH2           -25.3219219902      -32.8548578294       33.2545645866  TIP3      195             0.0000000000
     22836       387  TIP3      H1            -24.5721457998      -32.8238505757       33.8617602598  TIP3      195             0.0000000000
     22837       387  TIP3      H2            -25.6576303591      -33.7627332535       33.3959193039  TIP3      195             0.0000000000
     22838       388  TIP3      OH2           -24.4654547973      -33.3080937576       24.2965069828  TIP3      196             0.0000000000
     22839       388  TIP3      H1            -24.3506251868      -32.7525382158       23.5212032107  TIP3      196             0.0000000000
     22840       388  TIP3      H2            -23.9941519467      -32.8174658112       24.9836781047  TIP3      196             0.0000000000
     22841       389  TIP3      OH2           -27.3660513291      -31.4765449429       25.1470526852  TIP3      197             0.0000000000
     22842       389  TIP3      H1            -26.5371255582      -30.9653191494       25.1954361119  TIP3      197             0.0000000000
     22843       389  TIP3      H2            -27.5873334057      -31.6470500742       26.0798596612  TIP3      197             0.0000000000
     22844       390  TIP3      OH2           -26.7717001308      -30.5050248513       34.3411874854  TIP3      198             0.0000000000
     22845       390  TIP3      H1            -26.6960531745      -29.9547050337       35.1418451224  TIP3      198             0.0000000000
     22846       390  TIP3      H2            -26.1174522754      -31.2090837887       34.4381166647  TIP3      198             0.0000000000
     22847       391  TIP3      OH2           -26.4332559993      -34.4957728889       26.1466400632  TIP3      199             0.0000000000
     22848       391  TIP3      H1            -26.8068294289      -33.7677380992       26.6784428013  TIP3      199             0.0000000000
     22849       391  TIP3      H2            -25.8309421308      -33.9528157529       25.5741593418  TIP3      199             0.0000000000
     22850       392  TIP3      OH2           -20.5891499913      -32.6231891109       35.2033980738  TIP3      200             0.0000000000
     22851       392  TIP3      H1            -21.5254645285      -32.3338812417       35.0586184391  TIP3      200             0.0000000000
     22852       392  TIP3      H2            -20.3076895081      -32.6816688540       34.2676561503  TIP3      200             0.0000000000
     22853       393  TIP3      OH2           -21.9916821643      -28.8518454244       29.2396480212  TIP3      201             0.0000000000
     22854       393  TIP3      H1            -22.7987578541      -29.2924802867       28.9162377656  TIP3      201             0.0000000000
     22855       393  TIP3      H2            -21.5034774015      -29.5542789408       29.7219551967  TIP3      201             0.0000000000
     22856       394  TIP3      OH2           -20.9260977260      -19.5945329573       30.8718918157  TIP3      202             0.0000000000
     22857       394  TIP3      H1            -21.0241715714      -18.9172954988       30.1742321833  TIP3      202             0.0000000000
     22858       394  TIP3      H2            -19.9606803969      -19.5380789579       31.0430888622  TIP3      202             0.0000000000
     22859       395  TIP3      OH2           -33.6276040406      -35.3288603637       29.7286354967  TIP3      203             0.0000000000
     22860       395  TIP3      H1            -33.6190517706      -35.4053401699       28.7465745982  TIP3      203             0.0000000000
     22861       395  TIP3      H2            -33.8509218002      -36.2397879251       29.9571039124  TIP3      203             0.0000000000
     22862       396  TIP3      OH2           -34.9655992375      -18.8703655713       37.0872736026  TIP3      204             0.0000000000
     22863       396  TIP3      H1            -34.5637749708      -19.1055756717       37.9376231361  TIP3      204             0.0000000000
     22864       396  TIP3      H2            -35.5019240270      -19.6741746426       36.9266787876  TIP3      204             0.0000000000
     22865       397  TIP3      OH2           -30.5906303955      -20.0094473458       38.7202305475  TIP3      205             0.0000000000
     22866       397  TIP3      H1            -29.8259150099      -20.4891005706       39.0529753221  TIP3      205             0.0000000000
     22867       397  TIP3      H2            -30.6287138966      -20.2666305410       37.7765947859  TIP3      205             0.0000000000
     22868       398  TIP3      OH2           -23.8447442937      -21.7177451896       37.4292713051  TIP3      206             0.0000000000
     22869       398  TIP3      H1            -24.2250650187      -22.5575065933       37.7747733928  TIP3      206             0.0000000000
     22870       398  TIP3      H2            -23.1587153400      -21.5235116288       38.1023078671  TIP3      206             0.0000000000
     22871       399  TIP3      OH2           -35.4122794340      -25.1721801090       38.1164603779  TIP3      207             0.0000000000
     22872       399  TIP3      H1            -35.1622577983      -26.0219050603       37.7118963652  TIP3      207             0.0000000000
     22873       399  TIP3      H2            -36.0815790232      -24.8490799568       37.5002054357  TIP3      207             0.0000000000
     22874       400  TIP3      OH2           -28.5944598561      -25.1219798606       37.4389089093  TIP3      208             0.0000000000
     22875       400  TIP3      H1            -29.0131062714      -24.8600201775       36.6013054661  TIP3      208             0.0000000000
     22876       400  TIP3      H2            -28.5602610568      -26.1095051003       37.3719353286  TIP3      208             0.0000000000
     22877       401  TIP3      OH2           -22.9454106989      -25.2680311648       34.8930005297  TIP3      209             0.0000000000
     22878       401  TIP3      H1            -22.1533782838      -24.6942883594       34.7995598863  TIP3      209             0.0000000000
     22879       401  TIP3      H2            -23.6459822726      -24.6069029174       34.9088229417  TIP3      209             0.0000000000
     22880       402  TIP3      OH2           -34.4735291005      -27.9074252587       37.4764239221  TIP3      210             0.0000000000
     22881       402  TIP3      H1            -34.0297108861      -28.7647196457       37.3597690209  TIP3      210             0.0000000000
     22882       402  TIP3      H2            -34.6950165910      -27.8908706176       38.4111023899  TIP3      210             0.0000000000
     22883       403  TIP3      OH2           -29.8291588015      -26.7816888797       22.5554437050  TIP3      211             0.0000000000
     22884       403  TIP3      H1            -30.2716789707      -27.3384946718       23.1970869522  TIP3      211             0.0000000000
     22885       403  TIP3      H2            -29.5393336275      -27.3945784744       21.8390268783  TIP3      211             0.0000000000
     22886       404  TIP3      OH2           -30.5372336446      -28.9601432168       34.8357572730  TIP3      212             0.0000000000
     22887       404  TIP3      H1            -31.1418516249      -28.2461490801       35.1006355056  TIP3      212             0.0000000000
     22888       404  TIP3      H2            -30.1469675022      -28.5882257402       34.0256315447  TIP3      212             0.0000000000
     22889       405  TIP3      OH2           -25.4682602470      -26.3545673616       38.2393803413  TIP3      213             0.0000000000
     22890       405  TIP3      H1            -24.5209617566      -26.4145500057       38.0471671878  TIP3      213             0.0000000000
     22891       405  TIP3      H2            -25.6423807265      -27.1539174206       38.7630990996  TIP3      213             0.0000000000
     22892       406  TIP3      OH2           -30.1249636873      -31.5698938114       35.8848487985  TIP3      214             0.0000000000
     22893       406  TIP3      H1            -30.0121398649      -32.2924768449       35.2462156832  TIP3      214             0.0000000000
     22894       406  TIP3      H2            -30.1956355605      -30.7644352788       35.3313188198  TIP3      214             0.0000000000
     22895       407  TIP3      OH2           -29.7389186975      -33.1713221945       33.4176424996  TIP3      215             0.0000000000
     22896       407  TIP3      H1            -29.2161335649      -32.7052025373       32.7247274407  TIP3      215             0.0000000000
     22897       407  TIP3      H2            -30.6291688957      -33.2857613794       33.0061687001  TIP3      215             0.0000000000
     22898       408  TIP3      OH2           -28.1876502579      -27.7217873867       33.6895536635  TIP3      216             0.0000000000
     22899       408  TIP3      H1            -27.4368766035      -27.8751545928       33.1063391374  TIP3      216             0.0000000000
     22900       408  TIP3      H2            -28.5505051076      -26.8818171904       33.3587730909  TIP3      216             0.0000000000
     22901       409  TIP3      OH2           -23.7913175958      -29.9645148985       38.6489953056  TIP3      217             0.0000000000
     22902       409  TIP3      H1            -23.5718787540      -30.9062273788       38.5691291172  TIP3      217             0.0000000000
     22903       409  TIP3      H2            -22.9199232840      -29.5385744680       38.6606365418  TIP3      217             0.0000000000
     22904       410  TIP3      OH2           -22.4457718380      -27.1546839783       36.8322177919  TIP3      218             0.0000000000
     22905       410  TIP3      H1            -22.7052239684      -26.4417455080       36.2058222185  TIP3      218             0.0000000000
     22906       410  TIP3      H2            -21.4890209461      -27.1994972546       36.6143488379  TIP3      218             0.0000000000
     22907       411  TIP3      OH2           -31.6952701557      -30.3329783369       37.8571700253  TIP3      219             0.0000000000
     22908       411  TIP3      H1            -32.4553931589      -30.9108280409       37.6150325587  TIP3      219             0.0000000000
     22909       411  TIP3      H2            -31.0439968602      -30.6591021568       37.1964745065  TIP3      219             0.0000000000
     22910       412  TIP3      OH2           -29.1042820598      -35.5508988433       34.1214197740  TIP3      220             0.0000000000
     22911       412  TIP3      H1            -29.1506231184      -34.6268588632       33.7874371508  TIP3      220             0.0000000000
     22912       412  TIP3      H2            -29.6573512859      -35.9975447588       33.4637252104  TIP3      220             0.0000000000
     22913       413  TIP3      OH2           -27.6872488747      -31.3990007938       37.4557472291  TIP3      221             0.0000000000
     22914       413  TIP3      H1            -27.9677650049      -31.7016369823       38.3364093151  TIP3      221             0.0000000000
     22915       413  TIP3      H2            -28.4610581379      -31.6327491242       36.9107178682  TIP3      221             0.0000000000
     22916       414  TIP3      OH2           -24.9508504438      -32.2782965353       36.5410250261  TIP3      222             0.0000000000
     22917       414  TIP3      H1            -25.9156024227      -32.2510981562       36.6692408173  TIP3      222             0.0000000000
     22918       414  TIP3      H2            -24.6661239561      -32.9103285704       37.2317010098  TIP3      222             0.0000000000
     22919       415  TIP3      OH2           -23.3828515120      -33.5654857007       38.4783726341  TIP3      223             0.0000000000
     22920       415  TIP3      H1            -23.4452371882      -34.5542978093       38.4895953284  TIP3      223             0.0000000000
     22921       415  TIP3      H2            -23.6484474486      -33.3468971805       39.3964626561  TIP3      223             0.0000000000
     22922       416  TIP3      OH2           -33.4309806820      -32.3855654107       37.6089810669  TIP3      224             0.0000000000
     22923       416  TIP3      H1            -33.3095704269      -33.1211271764       36.9740429205  TIP3      224             0.0000000000
     22924       416  TIP3      H2            -33.6354325458      -32.8771066644       38.4241202684  TIP3      224             0.0000000000
     22925       417  TIP3      OH2           -28.7417713389       36.6309851973       36.5592551352  TIP3      225             0.0000000000
     22926       417  TIP3      H1            -28.0518884059       35.9645157097       36.6036402756  TIP3      225             0.0000000000
     22927       417  TIP3      H2            -28.8436993233       36.8488542708       35.6083265556  TIP3      225             0.0000000000
     22928       418  TIP3      OH2           -28.3579115512      -34.7001612102       38.5971814199  TIP3      226             0.0000000000
     22929       418  TIP3      H1            -28.5242726706      -35.2527928480       37.8015322348  TIP3      226             0.0000000000
     22930       418  TIP3      H2            -28.9653510113      -33.9586079935       38.5153890153  TIP3      226             0.0000000000
     22931       419  TIP3      OH2           -28.8806501018      -17.8368586998       21.7305119431  TIP3      227             0.0000000000
     22932       419  TIP3      H1            -27.9311994656      -17.7339908644       21.9157760738  TIP3      227             0.0000000000
     22933       419  TIP3      H2            -29.0799270012      -17.1286244804       21.1319297910  TIP3      227             0.0000000000
     22934       420  TIP3      OH2           -35.0656493245      -23.0736380720       21.1261793259  TIP3      228             0.0000000000
     22935       420  TIP3      H1            -34.1684391547      -23.1605029048       21.4761400214  TIP3      228             0.0000000000
     22936       420  TIP3      H2            -35.1919647384      -23.9086863683       20.6646595246  TIP3      228             0.0000000000
     22937       421  TIP3      OH2            36.8228840273      -17.6709457019       26.1508438262  TIP3      229             0.0000000000
     22938       421  TIP3      H1             35.9548809260      -17.9584368419       25.7885151083  TIP3      229             0.0000000000
     22939       421  TIP3      H2             36.9500508319      -18.3786415020       26.8259202214  TIP3      229             0.0000000000
     22940       422  TIP3      OH2           -35.7146656196      -19.6965537858       28.0974192322  TIP3      230             0.0000000000
     22941       422  TIP3      H1            -36.0640689528      -20.5934013279       28.3012073126  TIP3      230             0.0000000000
     22942       422  TIP3      H2            -35.4687220522      -19.4227897246       28.9956423257  TIP3      230             0.0000000000
     22943       423  TIP3      OH2           -18.2036286466      -18.9506752566       31.0673564324  TIP3      231             0.0000000000
     22944       423  TIP3      H1            -18.1758214166      -18.7837349172       32.0251849299  TIP3      231             0.0000000000
     22945       423  TIP3      H2            -17.4988834581      -18.3696811976       30.7619349141  TIP3      231             0.0000000000
     22946       424  TIP3      OH2           -18.6348755888      -19.3547313948       34.0179481732  TIP3      232             0.0000000000
     22947       424  TIP3      H1            -19.0994683553      -20.1254646860       33.6321011323  TIP3      232             0.0000000000
     22948       424  TIP3      H2            -18.1313737546      -19.8011539703       34.7183727666  TIP3      232             0.0000000000
     22949       425  TIP3      OH2           -20.1675717338      -23.6453979407       38.6766731436  TIP3      233             0.0000000000
     22950       425  TIP3      H1            -21.0584817314      -23.6697313948       39.0701867625  TIP3      233             0.0000000000
     22951       425  TIP3      H2            -19.8017415336      -22.8382158913       39.1021041310  TIP3      233             0.0000000000
     22952       426  TIP3      OH2           -18.8685942765      -25.3056626180       24.1248602647  TIP3      234             0.0000000000
     22953       426  TIP3      H1            -17.9874586569      -24.9319506294       24.3054768879  TIP3      234             0.0000000000
     22954       426  TIP3      H2            -18.8715326974      -26.0391033042       24.7827629250  TIP3      234             0.0000000000
     22955       427  TIP3      OH2           -18.5121053095      -27.1884862936       25.9834341980  TIP3      235             0.0000000000
     22956       427  TIP3      H1            -19.2270396323      -27.7468212601       26.3641774870  TIP3      235             0.0000000000
     22957       427  TIP3      H2            -17.9021466875      -27.1045760737       26.7423202310  TIP3      235             0.0000000000
     22958       428  TIP3      OH2           -18.7497736659      -24.5282261410       30.9829354527  TIP3      236             0.0000000000
     22959       428  TIP3      H1            -17.9310532504      -24.9043768550       30.6101579926  TIP3      236             0.0000000000
     22960       428  TIP3      H2            -18.6054389756      -23.5748835882       30.8117298663  TIP3      236             0.0000000000
     22961       429  TIP3      OH2           -20.1979905104      -21.6284563978       33.2542868914  TIP3      237             0.0000000000
     22962       429  TIP3      H1            -20.8790881821      -21.2868789313       33.8445001151  TIP3      237             0.0000000000
     22963       429  TIP3      H2            -20.7439471818      -22.0350278665       32.5484386821  TIP3      237             0.0000000000
     22964       430  TIP3      OH2           -18.1871075607      -27.4010753977       22.4016714548  TIP3      238             0.0000000000
     22965       430  TIP3      H1            -18.7340941797      -27.1020229751       21.6626241262  TIP3      238             0.0000000000
     22966       430  TIP3      H2            -18.2806270404      -26.6810425210       23.0464943898  TIP3      238             0.0000000000
     22967       431  TIP3      OH2           -20.6699544366      -28.7607124580       26.5390884700  TIP3      239             0.0000000000
     22968       431  TIP3      H1            -20.8362610865      -29.7135176244       26.5291315341  TIP3      239             0.0000000000
     22969       431  TIP3      H2            -21.0266214984      -28.5178026763       27.4135067741  TIP3      239             0.0000000000
     22970       432  TIP3      OH2           -35.6632298690      -26.6795180593       30.5424723853  TIP3      240             0.0000000000
     22971       432  TIP3      H1            -35.4581999584      -26.7295756755       29.5870635096  TIP3      240             0.0000000000
     22972       432  TIP3      H2            -34.7919580717      -26.8033693385       30.9760794699  TIP3      240             0.0000000000
     22973       433  TIP3      OH2           -19.8302394042      -26.7832730844       36.2701107414  TIP3      241             0.0000000000
     22974       433  TIP3      H1            -19.2183272228      -27.5431022869       36.3839463540  TIP3      241             0.0000000000
     22975       433  TIP3      H2            -19.2279292942      -26.0125242780       36.2520374669  TIP3      241             0.0000000000
     22976       434  TIP3      OH2           -18.3378908059      -28.8933486332       36.8983652206  TIP3      242             0.0000000000
     22977       434  TIP3      H1            -19.2126618947      -29.3044133564       36.7383980805  TIP3      242             0.0000000000
     22978       434  TIP3      H2            -17.7558951142      -29.6707464889       36.8318344777  TIP3      242             0.0000000000
     22979       435  TIP3      OH2           -21.0301474703      -31.1721020230       25.0441184415  TIP3      243             0.0000000000
     22980       435  TIP3      H1            -20.6981623145      -32.0929002248       25.1400928109  TIP3      243             0.0000000000
     22981       435  TIP3      H2            -20.2390695962      -30.7629493809       24.6540087444  TIP3      243             0.0000000000
     22982       436  TIP3      OH2           -20.3815685769      -30.6179441477       30.4693540574  TIP3      244             0.0000000000
     22983       436  TIP3      H1            -19.4200986180      -30.3918297104       30.4535944565  TIP3      244             0.0000000000
     22984       436  TIP3      H2            -20.5726714329      -30.4904734797       31.4123190924  TIP3      244             0.0000000000
     22985       437  TIP3      OH2           -20.3279658442      -29.8880805613       33.2365355516  TIP3      245             0.0000000000
     22986       437  TIP3      H1            -21.2011184074      -29.6080794304       33.5782862369  TIP3      245             0.0000000000
     22987       437  TIP3      H2            -19.8851948100      -29.0317982302       33.0260866658  TIP3      245             0.0000000000
     22988       438  TIP3      OH2           -35.7901202804      -31.4730120409       36.8001418374  TIP3      246             0.0000000000
     22989       438  TIP3      H1            -34.9011239920      -31.7153126942       37.0692337045  TIP3      246             0.0000000000
     22990       438  TIP3      H2            -36.3795615906      -32.1779270835       37.1637377596  TIP3      246             0.0000000000
     22991       439  TIP3      OH2           -17.9630020962      -35.8288647075       38.5813975490  TIP3      247             0.0000000000
     22992       439  TIP3      H1            -17.7222315869      -36.4994317348       37.9320554412  TIP3      247             0.0000000000
     22993       439  TIP3      H2            -17.9616328785      -35.0009161477       38.0732033517  TIP3      247             0.0000000000
     22994       440  TIP3      OH2           -20.4005152979      -33.8445902424       25.0952184178  TIP3      248             0.0000000000
     22995       440  TIP3      H1            -20.1255197821      -34.3285650298       25.9017606751  TIP3      248             0.0000000000
     22996       440  TIP3      H2            -20.9433114274      -34.5145295388       24.6181085954  TIP3      248             0.0000000000
     22997       441  TIP3      OH2           -34.8488991547      -33.0630239070       29.5677784445  TIP3      249             0.0000000000
     22998       441  TIP3      H1            -34.4202994195      -33.8888211506       29.8972953412  TIP3      249             0.0000000000
     22999       441  TIP3      H2            -34.3281214363      -32.3919853440       30.0405488083  TIP3      249             0.0000000000
     23000       442  TIP3      OH2           -36.0033631155      -29.3501546260       31.0261374879  TIP3      250             0.0000000000
     23001       442  TIP3      H1            -35.9930226277      -29.7806780495       30.1421994303  TIP3      250             0.0000000000
     23002       442  TIP3      H2            -35.9368006631      -28.4373946102       30.7519031449  TIP3      250             0.0000000000
     23003       443  TIP3      OH2           -18.5212119885      -33.7815995146       36.9357621850  TIP3      251             0.0000000000
     23004       443  TIP3      H1            -19.4540397045      -33.4830675592       36.9056554624  TIP3      251             0.0000000000
     23005       443  TIP3      H2            -18.4756901158      -34.3038784865       36.1188717835  TIP3      251             0.0000000000
     23006       444  TIP3      OH2           -18.5589336483      -33.8700112409       21.5789980591  TIP3      252             0.0000000000
     23007       444  TIP3      H1            -18.0811801584      -34.5589286102       21.1173689564  TIP3      252             0.0000000000
     23008       444  TIP3      H2            -17.8514163416      -33.1959122741       21.7283678844  TIP3      252             0.0000000000
     23009       445  TIP3      OH2           -35.8058192064      -33.9114529868       24.3480096132  TIP3      253             0.0000000000
     23010       445  TIP3      H1            -36.7253086280      -33.6388067546       24.4432755618  TIP3      253             0.0000000000
     23011       445  TIP3      H2            -35.5121102715      -33.1684083219       23.7917513741  TIP3      253             0.0000000000
     23012       446  TIP3      OH2           -21.4755135946      -18.8715136197       26.6959644273  TIP3      254             0.0000000000
     23013       446  TIP3      H1            -20.8015983672      -19.1804164006       26.0639673346  TIP3      254             0.0000000000
     23014       446  TIP3      H2            -20.9484220629      -18.3655717674       27.3320533252  TIP3      254             0.0000000000
     23015       447  TIP3      OH2            36.9714012890      -35.1324200236       33.2924878278  TIP3      255             0.0000000000
     23016       447  TIP3      H1             36.1677584012      -35.3906396041       33.7376050197  TIP3      255             0.0000000000
     23017       447  TIP3      H2             36.5225674666      -34.6818591212       32.5514266983  TIP3      255             0.0000000000
     23018       448  TIP3      OH2           -34.0594310578      -21.9271175201       37.2169124736  TIP3      256             0.0000000000
     23019       448  TIP3      H1            -34.9111040387      -21.7574892865       36.7976041789  TIP3      256             0.0000000000
     23020       448  TIP3      H2            -34.3085427134      -22.0181787301       38.1400401044  TIP3      256             0.0000000000
     23021       449  TIP3      OH2           -31.1092514171      -20.9543348862       33.4873648366  TIP3      257             0.0000000000
     23022       449  TIP3      H1            -31.5039901853      -20.1053073128       33.2168981248  TIP3      257             0.0000000000
     23023       449  TIP3      H2            -30.1984517711      -20.8462853404       33.1625453257  TIP3      257             0.0000000000
     23024       450  TIP3      OH2           -26.8410584931      -19.4426624793       36.3760089291  TIP3      258             0.0000000000
     23025       450  TIP3      H1            -26.8205196350      -19.6854318349       37.3328335429  TIP3      258             0.0000000000
     23026       450  TIP3      H2            -25.9325227330      -19.1699907918       36.0967867607  TIP3      258             0.0000000000
     23027       451  TIP3      OH2           -24.5332519727      -18.3022890431       35.7770372514  TIP3      259             0.0000000000
     23028       451  TIP3      H1            -23.7942101177      -18.8241315306       35.3892974190  TIP3      259             0.0000000000
     23029       451  TIP3      H2            -24.0115515589      -17.8740022960       36.4749508970  TIP3      259             0.0000000000
     23030       452  TIP3      OH2           -19.4917185319      -35.6285061297       34.7196134666  TIP3      260             0.0000000000
     23031       452  TIP3      H1            -20.3412848987      -35.3336985731       34.3391599653  TIP3      260             0.0000000000
     23032       452  TIP3      H2            -19.3457411096      -36.4810936224       34.2544383547  TIP3      260             0.0000000000
     23033       453  TIP3      OH2           -33.6750026415      -17.7140433379       33.4970744790  TIP3      261             0.0000000000
     23034       453  TIP3      H1            -34.4248797713      -17.2304494496       33.0962379193  TIP3      261             0.0000000000
     23035       453  TIP3      H2            -34.0308451642      -17.9146390733       34.3770452720  TIP3      261             0.0000000000
     23036       454  TIP3      OH2           -31.2346341458      -18.1748084789       32.4988176256  TIP3      262             0.0000000000
     23037       454  TIP3      H1            -32.1135122693      -18.0191363543       32.9266037360  TIP3      262             0.0000000000
     23038       454  TIP3      H2            -31.2850152419      -17.5329726665       31.7661960778  TIP3      262             0.0000000000
     23039       455  TIP3      OH2           -26.5533079721      -18.2329560689       31.7511173647  TIP3      263             0.0000000000
     23040       455  TIP3      H1            -26.9910797315      -17.6943302377       31.0669395504  TIP3      263             0.0000000000
     23041       455  TIP3      H2            -26.3934869609      -17.5638568995       32.4414645487  TIP3      263             0.0000000000
     23042       456  TIP3      OH2           -24.2836783402      -19.3930515468       32.8218870042  TIP3      264             0.0000000000
     23043       456  TIP3      H1            -25.0902763756      -19.1640386331       32.3258850956  TIP3      264             0.0000000000
     23044       456  TIP3      H2            -23.7623761199      -18.5921123561       32.6218215940  TIP3      264             0.0000000000
     23045       457  TIP3      OH2           -21.6798707918      -17.8385772115       32.9780439257  TIP3      265             0.0000000000
     23046       457  TIP3      H1            -21.7195732566      -16.8792033182       32.7390897031  TIP3      265             0.0000000000
     23047       457  TIP3      H2            -21.4484373927      -18.2095578166       32.1032855397  TIP3      265             0.0000000000
     23048       458  TIP3      OH2           -34.3167739965      -19.0675731293       30.4232233183  TIP3      266             0.0000000000
     23049       458  TIP3      H1            -34.3080866555      -19.5154319578       31.2935276254  TIP3      266             0.0000000000
     23050       458  TIP3      H2            -33.4942242643      -19.4238481492       30.0287111572  TIP3      266             0.0000000000
     23051       459  TIP3      OH2           -32.2054130189      -20.3578155771       29.0939152996  TIP3      267             0.0000000000
     23052       459  TIP3      H1            -32.3829830572      -21.2894450361       29.3226488371  TIP3      267             0.0000000000
     23053       459  TIP3      H2            -31.3327256898      -20.1884528460       29.5164983187  TIP3      267             0.0000000000
     23054       460  TIP3      OH2           -29.6329383188      -19.9018916296       29.9570666001  TIP3      268             0.0000000000
     23055       460  TIP3      H1            -29.3636019988      -20.7705837447       29.6582602434  TIP3      268             0.0000000000
     23056       460  TIP3      H2            -29.5238660974      -19.9453682539       30.9155009683  TIP3      268             0.0000000000
     23057       461  TIP3      OH2           -26.2571171489      -34.1724208605       29.0135153986  TIP3      269             0.0000000000
     23058       461  TIP3      H1            -26.7762372271      -34.8545373630       29.4403157367  TIP3      269             0.0000000000
     23059       461  TIP3      H2            -25.5079451747      -34.6510106135       28.5917134431  TIP3      269             0.0000000000
     23060       462  TIP3      OH2           -20.9437442331      -36.1636472247       29.1339591898  TIP3      270             0.0000000000
     23061       462  TIP3      H1            -20.3410814286      -35.5711725517       28.6464446464  TIP3      270             0.0000000000
     23062       462  TIP3      H2            -21.8232945497      -35.8113027811       28.9856472913  TIP3      270             0.0000000000
     23063       463  TIP3      OH2           -19.2890892846      -34.9134984038       27.4419931868  TIP3      271             0.0000000000
     23064       463  TIP3      H1            -18.6468736193      -35.4947745289       27.0149199033  TIP3      271             0.0000000000
     23065       463  TIP3      H2            -18.7861141674      -34.0699676134       27.5065018662  TIP3      271             0.0000000000
     23066       464  TIP3      OH2           -33.7781119054      -35.5652163139       26.9281402997  TIP3      272             0.0000000000
     23067       464  TIP3      H1            -34.5229803401      -35.8501894473       26.3963079973  TIP3      272             0.0000000000
     23068       464  TIP3      H2            -33.2794631590      -36.4027018874       26.9694552426  TIP3      272             0.0000000000
     23069       465  TIP3      OH2           -34.8290993568      -35.7994277318       22.7553079745  TIP3      273             0.0000000000
     23070       465  TIP3      H1            -34.5312469337      -35.2497688937       22.0315068278  TIP3      273             0.0000000000
     23071       465  TIP3      H2            -35.5539179915      -35.2815774681       23.1300575734  TIP3      273             0.0000000000
     23072       466  TIP3      OH2           -29.1132379628      -35.8529529078       26.7370561976  TIP3      274             0.0000000000
     23073       466  TIP3      H1            -28.3897895921      -35.2002449940       26.6408135979  TIP3      274             0.0000000000
     23074       466  TIP3      H2            -29.4194982776      -35.7957073190       27.6459850704  TIP3      274             0.0000000000
     23075       467  TIP3      OH2           -23.8929479804      -35.2987193148       28.4742851171  TIP3      275             0.0000000000
     23076       467  TIP3      H1            -23.6292070817      -35.3526887290       27.5531948909  TIP3      275             0.0000000000
     23077       467  TIP3      H2            -23.8681755905      -36.2759657583       28.6445402959  TIP3      275             0.0000000000
     23078       468  TIP3      OH2           -22.2896680569      -35.5741158741       24.0939873900  TIP3      276             0.0000000000
     23079       468  TIP3      H1            -23.0254033286      -35.0047162661       23.8257325214  TIP3      276             0.0000000000
     23080       468  TIP3      H2            -22.7056776563      -36.4448847096       24.1391532286  TIP3      276             0.0000000000
     23081       469  TIP3      OH2           -35.0928041810      -19.8470017671       23.6773870196  TIP3      277             0.0000000000
     23082       469  TIP3      H1            -35.7004097800      -19.8921857739       22.9251035968  TIP3      277             0.0000000000
     23083       469  TIP3      H2            -35.0520682758      -18.9003240832       23.8141597244  TIP3      277             0.0000000000
     23084       470  TIP3      OH2           -28.2106549080      -33.6606335575       23.6043538295  TIP3      278             0.0000000000
     23085       470  TIP3      H1            -27.8541127570      -34.2352871965       24.2815653664  TIP3      278             0.0000000000
     23086       470  TIP3      H2            -28.0634803807      -32.8049261629       24.0404903093  TIP3      278             0.0000000000
     23087       471  TIP3      OH2           -26.1734934067      -18.5462567508       21.9814952630  TIP3      279             0.0000000000
     23088       471  TIP3      H1            -25.2483399318      -18.3173513888       21.8084318950  TIP3      279             0.0000000000
     23089       471  TIP3      H2            -26.3949072905      -19.1107412870       21.2328821176  TIP3      279             0.0000000000
     23090       472  TIP3      OH2           -19.4966812950      -19.0550690533       24.7188639258  TIP3      280             0.0000000000
     23091       472  TIP3      H1            -19.6648290309      -19.8507523336       24.1582403962  TIP3      280             0.0000000000
     23092       472  TIP3      H2            -19.5547714841      -18.3378998566       24.0608237679  TIP3      280             0.0000000000
     23093       473  TIP3      OH2           -33.9698778080      -35.0562442312       36.3122684873  TIP3      281             0.0000000000
     23094       473  TIP3      H1            -34.2655011215      -35.8394490326       36.7856617505  TIP3      281             0.0000000000
     23095       473  TIP3      H2            -33.0465104270      -35.0599641446       36.6759223191  TIP3      281             0.0000000000
     23096       474  TIP3      OH2           -32.1367780158      -35.4976084548       37.9166605814  TIP3      282             0.0000000000
     23097       474  TIP3      H1            -31.1900155028      -35.6964541313       37.7730162638  TIP3      282             0.0000000000
     23098       474  TIP3      H2            -32.2708637658      -36.3456069989       38.3825529285  TIP3      282             0.0000000000
     23099       475  TIP3      OH2           -32.8048730889      -18.6357040419       20.9445349716  TIP3      283             0.0000000000
     23100       475  TIP3      H1            -33.4957012144      -18.7232952315       21.6004829865  TIP3      283             0.0000000000
     23101       475  TIP3      H2            -32.4152031416      -19.5329286237       20.8673148232  TIP3      283             0.0000000000
     23102       476  TIP3      OH2           -23.5145205990       36.9935596765       38.1027697216  TIP3      284             0.0000000000
     23103       476  TIP3      H1            -23.4617000964       36.4053159362       38.8877962446  TIP3      284             0.0000000000
     23104       476  TIP3      H2            -22.6430650493       36.7587880804       37.7532019835  TIP3      284             0.0000000000
     23105       477  TIP3      OH2           -20.2593775083      -20.3512261784       36.8443059758  TIP3      285             0.0000000000
     23106       477  TIP3      H1            -21.0413752123      -20.4750095701       36.2696190577  TIP3      285             0.0000000000
     23107       477  TIP3      H2            -20.3214611910      -19.3934938395       37.0207464602  TIP3      285             0.0000000000
     23108       478  TIP3      OH2            -5.7890918860      -26.4643743442       26.7947341604  TIP3      286             0.0000000000
     23109       478  TIP3      H1             -5.8065579984      -25.4857377623       26.7666433230  TIP3      286             0.0000000000
     23110       478  TIP3      H2             -6.5155959812      -26.7060200512       26.2000540448  TIP3      286             0.0000000000
     23111       479  TIP3      OH2            -6.9427762283      -27.2059463094       30.2858407789  TIP3      287             0.0000000000
     23112       479  TIP3      H1             -6.9576301636      -27.8546774617       31.0010798222  TIP3      287             0.0000000000
     23113       479  TIP3      H2             -7.2915198129      -27.7089975986       29.5302025196  TIP3      287             0.0000000000
     23114       480  TIP3      OH2           -14.5913976618      -27.5259792982       31.8537514185  TIP3      288             0.0000000000
     23115       480  TIP3      H1            -14.5044184934      -28.2146575821       32.5459278419  TIP3      288             0.0000000000
     23116       480  TIP3      H2            -13.8389358942      -26.9576294734       32.0654471022  TIP3      288             0.0000000000
     23117       481  TIP3      OH2            -3.2539650718      -24.2539110752       28.5638613451  TIP3      289             0.0000000000
     23118       481  TIP3      H1             -3.6628847640      -24.9756684249       29.0528634589  TIP3      289             0.0000000000
     23119       481  TIP3      H2             -3.2320206163      -23.5454482734       29.2330607082  TIP3      289             0.0000000000
     23120       482  TIP3      OH2           -13.6656457766      -23.0929579098       30.3631287938  TIP3      290             0.0000000000
     23121       482  TIP3      H1            -13.9784108614      -23.9524829887       30.0243847252  TIP3      290             0.0000000000
     23122       482  TIP3      H2            -12.7078400401      -23.2712957579       30.3972636604  TIP3      290             0.0000000000
     23123       483  TIP3      OH2           -17.0558549906      -29.4718911976       25.8850949787  TIP3      291             0.0000000000
     23124       483  TIP3      H1            -17.4828951060      -28.6119057967       25.7473174155  TIP3      291             0.0000000000
     23125       483  TIP3      H2            -17.5257239589      -30.0679367086       25.2748540014  TIP3      291             0.0000000000
     23126       484  TIP3      OH2           -16.2859033223      -27.2666532416       27.9781401261  TIP3      292             0.0000000000
     23127       484  TIP3      H1            -16.0485853086      -28.1174904618       28.4065903620  TIP3      292             0.0000000000
     23128       484  TIP3      H2            -15.6152446337      -27.2118590884       27.2777394132  TIP3      292             0.0000000000
     23129       485  TIP3      OH2            -6.1322120889      -19.0983103637       28.8140125817  TIP3      293             0.0000000000
     23130       485  TIP3      H1             -5.4881368075      -19.7931979583       28.5303991274  TIP3      293             0.0000000000
     23131       485  TIP3      H2             -6.3467298471      -19.4254174255       29.6862743567  TIP3      293             0.0000000000
     23132       486  TIP3      OH2            -8.5664530921      -24.8027395751       30.7500691606  TIP3      294             0.0000000000
     23133       486  TIP3      H1             -8.2292902808      -25.4307406862       30.0916790808  TIP3      294             0.0000000000
     23134       486  TIP3      H2             -7.7625479203      -24.6492303454       31.2760641063  TIP3      294             0.0000000000
     23135       487  TIP3      OH2             0.0276822424      -33.1939709094       31.5146606121  TIP3      295             0.0000000000
     23136       487  TIP3      H1              0.2018719099      -32.5575786802       32.2538719252  TIP3      295             0.0000000000
     23137       487  TIP3      H2              0.5638663904      -32.7412272355       30.8326428403  TIP3      295             0.0000000000
     23138       488  TIP3      OH2            -5.3975844988      -30.3385716391       31.0772401006  TIP3      296             0.0000000000
     23139       488  TIP3      H1             -5.2481285576      -31.3047000967       31.0757119815  TIP3      296             0.0000000000
     23140       488  TIP3      H2             -5.5043368628      -30.1893941724       30.1163392296  TIP3      296             0.0000000000
     23141       489  TIP3      OH2           -12.2583447969      -32.2454890677       28.2984028247  TIP3      297             0.0000000000
     23142       489  TIP3      H1            -12.1977625598      -31.4122844454       27.8019170250  TIP3      297             0.0000000000
     23143       489  TIP3      H2            -12.6992361455      -32.7948855666       27.6081914929  TIP3      297             0.0000000000
     23144       490  TIP3      OH2            -4.5477729342      -32.1858431265       26.6872717599  TIP3      298             0.0000000000
     23145       490  TIP3      H1             -3.8731252009      -32.4708462526       27.3394619540  TIP3      298             0.0000000000
     23146       490  TIP3      H2             -4.0091559567      -31.6258932096       26.1065537441  TIP3      298             0.0000000000
     23147       491  TIP3      OH2           -15.6625696409      -29.8040581362       29.0546894950  TIP3      299             0.0000000000
     23148       491  TIP3      H1            -14.9983129867      -30.3883718228       29.4707232784  TIP3      299             0.0000000000
     23149       491  TIP3      H2            -15.5576026261      -30.1366422566       28.1375047782  TIP3      299             0.0000000000
     23150       492  TIP3      OH2           -10.5096294723      -28.2864957151       28.3394463174  TIP3      300             0.0000000000
     23151       492  TIP3      H1             -9.8340767132      -28.8624149387       28.7384319017  TIP3      300             0.0000000000
     23152       492  TIP3      H2            -11.0195694731      -28.9408929940       27.8170344415  TIP3      300             0.0000000000
     23153       493  TIP3      OH2             0.4474868152      -31.7720579533       33.7601757335  TIP3      301             0.0000000000
     23154       493  TIP3      H1             -0.1344710342      -30.9838757837       33.6634487786  TIP3      301             0.0000000000
     23155       493  TIP3      H2              0.5196834097      -31.8331868436       34.7234811670  TIP3      301             0.0000000000
     23156       494  TIP3      OH2           -13.3689125430      -33.3036744580       32.3235587742  TIP3      302             0.0000000000
     23157       494  TIP3      H1            -13.6853872419      -32.7666472984       31.5702455913  TIP3      302             0.0000000000
     23158       494  TIP3      H2            -14.0760033767      -33.1199252587       32.9926053115  TIP3      302             0.0000000000
     23159       495  TIP3      OH2            -6.0256791892      -23.8510322267       25.8347395128  TIP3      303             0.0000000000
     23160       495  TIP3      H1             -6.4248574862      -24.1735222252       25.0290908215  TIP3      303             0.0000000000
     23161       495  TIP3      H2             -6.4050418990      -22.9548808052       25.9861015759  TIP3      303             0.0000000000
     23162       496  TIP3      OH2           -10.8592201960      -25.7022978609       32.5792870224  TIP3      304             0.0000000000
     23163       496  TIP3      H1            -11.5719320289      -25.0602731330       32.7845708443  TIP3      304             0.0000000000
     23164       496  TIP3      H2            -10.1564965750      -25.1054825151       32.2830674552  TIP3      304             0.0000000000
     23165       497  TIP3      OH2            -2.7169316091      -32.8499731837       28.6486033055  TIP3      305             0.0000000000
     23166       497  TIP3      H1             -2.9874841396      -33.5807293839       29.2088250835  TIP3      305             0.0000000000
     23167       497  TIP3      H2             -2.0744376534      -32.3762514995       29.2018049588  TIP3      305             0.0000000000
     23168       498  TIP3      OH2           -13.8120616344      -31.4606022007       30.3539252692  TIP3      306             0.0000000000
     23169       498  TIP3      H1            -13.1647334152      -30.8012667584       30.6770421075  TIP3      306             0.0000000000
     23170       498  TIP3      H2            -13.3108747033      -31.8854939297       29.6063731573  TIP3      306             0.0000000000
     23171       499  TIP3      OH2           -12.4178980693      -23.7036654400       33.3939732911  TIP3      307             0.0000000000
     23172       499  TIP3      H1            -12.4643139991      -22.7930002377       33.0478857446  TIP3      307             0.0000000000
     23173       499  TIP3      H2            -13.3017023471      -23.7813252769       33.8359747709  TIP3      307             0.0000000000
     23174       500  TIP3      OH2           -16.3791318406      -24.0816538328       24.1817724873  TIP3      308             0.0000000000
     23175       500  TIP3      H1            -16.6057895429      -23.7759494443       23.2939617166  TIP3      308             0.0000000000
     23176       500  TIP3      H2            -16.2539176251      -23.2486651841       24.6725984138  TIP3      308             0.0000000000
     23177       501  TIP3      OH2            -2.7245093974      -22.4198405441       30.9404920049  TIP3      309             0.0000000000
     23178       501  TIP3      H1             -3.6922729052      -22.3118778278       31.0626720220  TIP3      309             0.0000000000
     23179       501  TIP3      H2             -2.4554926458      -21.5023331150       30.7439827238  TIP3      309             0.0000000000
     23180       502  TIP3      OH2            -2.4378573192      -34.0165612791       32.3325832229  TIP3      310             0.0000000000
     23181       502  TIP3      H1             -3.2089362008      -33.4289198722       32.2095110704  TIP3      310             0.0000000000
     23182       502  TIP3      H2             -1.7595557934      -33.5802847444       31.7661126642  TIP3      310             0.0000000000
     23183       503  TIP3      OH2            -9.4517863437      -36.0077591104       29.6439953785  TIP3      311             0.0000000000
     23184       503  TIP3      H1             -9.4855598048      -36.9685728149       29.7828811328  TIP3      311             0.0000000000
     23185       503  TIP3      H2            -10.2537571973      -35.7381299203       30.1188842621  TIP3      311             0.0000000000
     23186       504  TIP3      OH2            -4.4766617123      -20.6348288630       27.5358495442  TIP3      312             0.0000000000
     23187       504  TIP3      H1             -4.0144682290      -21.3500808324       27.0561654859  TIP3      312             0.0000000000
     23188       504  TIP3      H2             -4.0419152036      -19.8397981876       27.1600634638  TIP3      312             0.0000000000
     23189       505  TIP3      OH2            -3.2864785275      -22.7094044422       26.0192759217  TIP3      313             0.0000000000
     23190       505  TIP3      H1             -3.5424610667      -23.4510712196       25.4580921119  TIP3      313             0.0000000000
     23191       505  TIP3      H2             -3.2197825277      -23.1741461276       26.8838128353  TIP3      313             0.0000000000
     23192       506  TIP3      OH2            -1.6573737320      -24.1228261236       34.5577585164  TIP3      314             0.0000000000
     23193       506  TIP3      H1             -1.4931682241      -24.7648013940       33.8309394639  TIP3      314             0.0000000000
     23194       506  TIP3      H2             -1.4408129188      -23.2774691997       34.1234818206  TIP3      314             0.0000000000
     23195       507  TIP3      OH2            -7.1033038207      -27.1776670045       24.3448105749  TIP3      315             0.0000000000
     23196       507  TIP3      H1             -7.8567233591      -26.7065875771       23.9677894774  TIP3      315             0.0000000000
     23197       507  TIP3      H2             -6.4410276315      -27.1377006944       23.6342960929  TIP3      315             0.0000000000
     23198       508  TIP3      OH2            -7.0473925210      -28.6588362463       21.3565801291  TIP3      316             0.0000000000
     23199       508  TIP3      H1             -6.3675291852      -28.7535867711       22.0220912452  TIP3      316             0.0000000000
     23200       508  TIP3      H2             -6.8675531387      -29.3718507698       20.7230904153  TIP3      316             0.0000000000
     23201       509  TIP3      OH2             0.2482649803      -27.8047523574       32.5891681386  TIP3      317             0.0000000000
     23202       509  TIP3      H1             -0.4128189050      -27.0852082111       32.6304697359  TIP3      317             0.0000000000
     23203       509  TIP3      H2              0.7371041716      -27.5721241621       31.7788700876  TIP3      317             0.0000000000
     23204       510  TIP3      OH2            -3.7028301872      -27.0330053823       25.2176786297  TIP3      318             0.0000000000
     23205       510  TIP3      H1             -4.4353374422      -26.7737544450       25.8317398401  TIP3      318             0.0000000000
     23206       510  TIP3      H2             -3.2339158198      -27.6819686350       25.7691752153  TIP3      318             0.0000000000
     23207       511  TIP3      OH2            -3.7691815001      -28.8561344499       34.3466794060  TIP3      319             0.0000000000
     23208       511  TIP3      H1             -3.7572190503      -28.0318702718       34.8543266056  TIP3      319             0.0000000000
     23209       511  TIP3      H2             -4.3976807315      -28.5666434788       33.6527003242  TIP3      319             0.0000000000
     23210       512  TIP3      OH2           -12.0829060068      -26.3576554704       27.1313122005  TIP3      320             0.0000000000
     23211       512  TIP3      H1            -12.3999106409      -26.7319217274       26.2917026629  TIP3      320             0.0000000000
     23212       512  TIP3      H2            -11.4638358205      -27.0461927917       27.4597113274  TIP3      320             0.0000000000
     23213       513  TIP3      OH2           -10.7628532280      -22.9617542318       29.8330695021  TIP3      321             0.0000000000
     23214       513  TIP3      H1            -10.7789556516      -23.4908006041       29.0251747138  TIP3      321             0.0000000000
     23215       513  TIP3      H2             -9.9777539650      -23.3250220780       30.2825302173  TIP3      321             0.0000000000
     23216       514  TIP3      OH2           -11.7414333809      -27.5996257277       30.8209250116  TIP3      322             0.0000000000
     23217       514  TIP3      H1            -11.1896396078      -27.5041749556       30.0205444077  TIP3      322             0.0000000000
     23218       514  TIP3      H2            -11.3582346665      -26.9297281810       31.4237948510  TIP3      322             0.0000000000
     23219       515  TIP3      OH2            -5.3415825235      -22.0389597325       31.5112842242  TIP3      323             0.0000000000
     23220       515  TIP3      H1             -5.6255989873      -21.4048278461       32.1756017565  TIP3      323             0.0000000000
     23221       515  TIP3      H2             -5.5973607022      -22.8944328023       31.9335247699  TIP3      323             0.0000000000
     23222       516  TIP3      OH2           -10.8041689593      -23.1780763159       35.5007358206  TIP3      324             0.0000000000
     23223       516  TIP3      H1            -11.2027724631      -22.4224079705       35.9785358647  TIP3      324             0.0000000000
     23224       516  TIP3      H2            -11.4778698880      -23.3719652300       34.8014188150  TIP3      324             0.0000000000
     23225       517  TIP3      OH2            -4.8385192616      -27.8123112819       22.9075815669  TIP3      325             0.0000000000
     23226       517  TIP3      H1             -4.2768660674      -27.6471747039       23.7061518177  TIP3      325             0.0000000000
     23227       517  TIP3      H2             -4.3852425507      -27.3190830758       22.2135335126  TIP3      325             0.0000000000
     23228       518  TIP3      OH2           -13.8611296536      -27.0129966673       34.6561912703  TIP3      326             0.0000000000
     23229       518  TIP3      H1            -13.8138165714      -26.3490471136       35.3704033126  TIP3      326             0.0000000000
     23230       518  TIP3      H2            -14.8020600660      -26.9249421783       34.4404630311  TIP3      326             0.0000000000
     23231       519  TIP3      OH2            -7.0801510650      -21.0895886279       26.3320066180  TIP3      327             0.0000000000
     23232       519  TIP3      H1             -6.6817821231      -20.8105408364       27.1739846943  TIP3      327             0.0000000000
     23233       519  TIP3      H2             -7.6691771139      -20.3376979915       26.1610905673  TIP3      327             0.0000000000
     23234       520  TIP3      OH2           -12.5569653956      -21.1385907786       36.2490099045  TIP3      328             0.0000000000
     23235       520  TIP3      H1            -12.6127155041      -21.2455269246       35.2844264799  TIP3      328             0.0000000000
     23236       520  TIP3      H2            -13.4885045060      -21.2702361651       36.5132778397  TIP3      328             0.0000000000
     23237       521  TIP3      OH2             0.0662225227      -21.7230988436       21.3861691050  TIP3      329             0.0000000000
     23238       521  TIP3      H1              0.1114342980      -20.7699511313       21.2343931061  TIP3      329             0.0000000000
     23239       521  TIP3      H2              0.9170209886      -21.9926946158       21.0205889593  TIP3      329             0.0000000000
     23240       522  TIP3      OH2           -17.0194888273      -24.8998827629       33.6466086656  TIP3      330             0.0000000000
     23241       522  TIP3      H1            -17.4711751248      -24.9824647433       32.7869071623  TIP3      330             0.0000000000
     23242       522  TIP3      H2            -16.9498134371      -25.8481317658       33.8675130665  TIP3      330             0.0000000000
     23243       523  TIP3      OH2           -17.2595434190      -22.1641570993       30.4249389545  TIP3      331             0.0000000000
     23244       523  TIP3      H1            -16.3026178598      -22.2845014469       30.4116928351  TIP3      331             0.0000000000
     23245       523  TIP3      H2            -17.3458106978      -21.3521327828       30.9407165785  TIP3      331             0.0000000000
     23246       524  TIP3      OH2             0.9688821671      -21.4626492096       36.0931030480  TIP3      332             0.0000000000
     23247       524  TIP3      H1              0.8598800383      -22.4240322404       36.1013696694  TIP3      332             0.0000000000
     23248       524  TIP3      H2              0.1144978222      -21.2165909914       36.5256426935  TIP3      332             0.0000000000
     23249       525  TIP3      OH2            -8.0682890644      -21.9185645708       34.9829278690  TIP3      333             0.0000000000
     23250       525  TIP3      H1             -8.0053718806      -21.0836473899       35.5047680636  TIP3      333             0.0000000000
     23251       525  TIP3      H2             -8.9382523617      -22.2795821653       35.2377496604  TIP3      333             0.0000000000
     23252       526  TIP3      OH2            -7.5247998155      -18.2024354557       24.7437971178  TIP3      334             0.0000000000
     23253       526  TIP3      H1             -7.8094695098      -18.2344313885       23.8203874065  TIP3      334             0.0000000000
     23254       526  TIP3      H2             -7.6505246911      -17.2511340876       24.9468258224  TIP3      334             0.0000000000
     23255       527  TIP3      OH2           -14.0164510860      -19.2776387941       26.6423267191  TIP3      335             0.0000000000
     23256       527  TIP3      H1            -13.8423295281      -19.7259325053       27.4964075855  TIP3      335             0.0000000000
     23257       527  TIP3      H2            -14.8377023223      -19.7142719470       26.3645964801  TIP3      335             0.0000000000
     23258       528  TIP3      OH2            -4.6119343087      -18.9965944403       21.7758503505  TIP3      336             0.0000000000
     23259       528  TIP3      H1             -4.1611258763      -19.6845516265       21.2631858793  TIP3      336             0.0000000000
     23260       528  TIP3      H2             -4.5313208083      -19.2194712887       22.7126940954  TIP3      336             0.0000000000
     23261       529  TIP3      OH2            -4.8775152416      -19.1075550623       24.5207187965  TIP3      337             0.0000000000
     23262       529  TIP3      H1             -5.8147379576      -18.9185434462       24.7531554782  TIP3      337             0.0000000000
     23263       529  TIP3      H2             -4.6270378119      -19.7652784009       25.1715375846  TIP3      337             0.0000000000
     23264       530  TIP3      OH2            -1.8802754252      -30.0110659354       36.5900853858  TIP3      338             0.0000000000
     23265       530  TIP3      H1             -2.3461655047      -29.5449023537       35.8719439201  TIP3      338             0.0000000000
     23266       530  TIP3      H2             -1.8893790742      -30.9268250804       36.2787295710  TIP3      338             0.0000000000
     23267       531  TIP3      OH2           -14.7394532698      -23.5891896162       34.6000639047  TIP3      339             0.0000000000
     23268       531  TIP3      H1            -14.5194682159      -23.9608456376       35.4834044438  TIP3      339             0.0000000000
     23269       531  TIP3      H2            -15.6082068410      -23.9850897317       34.3816287376  TIP3      339             0.0000000000
     23270       532  TIP3      OH2           -12.0827500296      -35.1468957278       30.5811762714  TIP3      340             0.0000000000
     23271       532  TIP3      H1            -12.9723223126      -35.2111948666       30.1800676693  TIP3      340             0.0000000000
     23272       532  TIP3      H2            -12.1918830636      -34.2813997867       31.0069163817  TIP3      340             0.0000000000
     23273       533  TIP3      OH2            -7.4390595452      -35.4238859588       33.9550235027  TIP3      341             0.0000000000
     23274       533  TIP3      H1             -7.0153560886      -35.8385489561       34.7058183495  TIP3      341             0.0000000000
     23275       533  TIP3      H2             -8.3908357128      -35.5388230351       34.1130629697  TIP3      341             0.0000000000
     23276       534  TIP3      OH2            -4.1183870976      -31.6522239102       34.8103065226  TIP3      342             0.0000000000
     23277       534  TIP3      H1             -4.6986775866      -31.7960255662       35.5950852440  TIP3      342             0.0000000000
     23278       534  TIP3      H2             -4.2869824034      -30.7244609883       34.5620777999  TIP3      342             0.0000000000
     23279       535  TIP3      OH2           -11.9535799213      -30.1378937668       31.7952748229  TIP3      343             0.0000000000
     23280       535  TIP3      H1            -12.7029266309      -30.1599434931       32.4184261552  TIP3      343             0.0000000000
     23281       535  TIP3      H2            -12.0038517894      -29.2289256604       31.4270710680  TIP3      343             0.0000000000
     23282       536  TIP3      OH2           -11.9640428340      -29.9944108234       26.6616140289  TIP3      344             0.0000000000
     23283       536  TIP3      H1            -12.9082723949      -30.2549511530       26.5414656592  TIP3      344             0.0000000000
     23284       536  TIP3      H2            -11.6085794107      -30.3130701107       25.7990311850  TIP3      344             0.0000000000
     23285       537  TIP3      OH2            -6.4935296932      -29.5381560797       25.4204802879  TIP3      345             0.0000000000
     23286       537  TIP3      H1             -6.8826161819      -28.6990657687       25.0977652444  TIP3      345             0.0000000000
     23287       537  TIP3      H2             -5.7754721576      -29.6806958402       24.7897201180  TIP3      345             0.0000000000
     23288       538  TIP3      OH2            -7.3949817161      -29.2911021317       36.8756961939  TIP3      346             0.0000000000
     23289       538  TIP3      H1             -7.9409837498      -30.0641381581       37.1694800304  TIP3      346             0.0000000000
     23290       538  TIP3      H2             -6.5688758020      -29.4589738923       37.3505949677  TIP3      346             0.0000000000
     23291       539  TIP3      OH2            -5.4442650447      -30.0303345753       28.2760462010  TIP3      347             0.0000000000
     23292       539  TIP3      H1             -5.7214478236      -29.4712657491       27.5332171322  TIP3      347             0.0000000000
     23293       539  TIP3      H2             -5.3458608915      -30.8791109142       27.8054570702  TIP3      347             0.0000000000
     23294       540  TIP3      OH2           -14.3349859713      -29.8777674234       33.4852566707  TIP3      348             0.0000000000
     23295       540  TIP3      H1            -14.2626096009      -29.4769137209       34.3686898990  TIP3      348             0.0000000000
     23296       540  TIP3      H2            -14.7839972567      -30.7126981606       33.6846876954  TIP3      348             0.0000000000
     23297       541  TIP3      OH2           -17.6997399219      -32.7992391084       27.4489455459  TIP3      349             0.0000000000
     23298       541  TIP3      H1            -16.9945756782      -32.7659659989       28.1273003816  TIP3      349             0.0000000000
     23299       541  TIP3      H2            -17.2039001354      -33.0869536633       26.6619352084  TIP3      349             0.0000000000
     23300       542  TIP3      OH2           -16.8491723058      -32.1025839481       22.2825722997  TIP3      350             0.0000000000
     23301       542  TIP3      H1            -15.9912980525      -31.6185022081       22.3037940248  TIP3      350             0.0000000000
     23302       542  TIP3      H2            -17.0865946737      -31.6171442288       23.1068651395  TIP3      350             0.0000000000
     23303       543  TIP3      OH2            -6.2413101983      -28.4439300180       32.8410226681  TIP3      351             0.0000000000
     23304       543  TIP3      H1             -5.8682928760      -29.1282794299       32.2480755303  TIP3      351             0.0000000000
     23305       543  TIP3      H2             -6.7065253258      -28.9754079137       33.5124656345  TIP3      351             0.0000000000
     23306       544  TIP3      OH2            -9.4431553250      -32.4819862423       27.6605118106  TIP3      352             0.0000000000
     23307       544  TIP3      H1            -10.3736558938      -32.4722818330       27.9698608269  TIP3      352             0.0000000000
     23308       544  TIP3      H2             -8.9500793723      -32.6243193542       28.4797477882  TIP3      352             0.0000000000
     23309       545  TIP3      OH2           -14.5066187692      -30.8151784010       26.8608548852  TIP3      353             0.0000000000
     23310       545  TIP3      H1            -15.3281100444      -30.6958035123       26.2947298977  TIP3      353             0.0000000000
     23311       545  TIP3      H2            -14.3113910793      -31.5857285072       26.2633094556  TIP3      353             0.0000000000
     23312       546  TIP3      OH2           -11.0210115166      -30.7851896732       24.2522487993  TIP3      354             0.0000000000
     23313       546  TIP3      H1            -10.0550254387      -30.8118882156       24.2861609481  TIP3      354             0.0000000000
     23314       546  TIP3      H2            -11.2264939091      -30.2593417255       23.4502406353  TIP3      354             0.0000000000
     23315       547  TIP3      OH2            -5.0266368442      -33.2858367206       30.9229555394  TIP3      355             0.0000000000
     23316       547  TIP3      H1             -5.7306560063      -33.1641148571       31.5988608691  TIP3      355             0.0000000000
     23317       547  TIP3      H2             -5.5387294544      -33.4957627940       30.1260696720  TIP3      355             0.0000000000
     23318       548  TIP3      OH2            -1.8432828380      -17.5825770191       37.2674712503  TIP3      356             0.0000000000
     23319       548  TIP3      H1             -1.5624967679      -17.2201807388       36.4064695892  TIP3      356             0.0000000000
     23320       548  TIP3      H2             -1.1095507422      -17.2790499240       37.8305335085  TIP3      356             0.0000000000
     23321       549  TIP3      OH2           -14.1466099761      -25.1176357332       36.8085365172  TIP3      357             0.0000000000
     23322       549  TIP3      H1            -13.4455733724      -24.8789958840       37.4368975649  TIP3      357             0.0000000000
     23323       549  TIP3      H2            -14.9385972953      -25.0334798398       37.3829854059  TIP3      357             0.0000000000
     23324       550  TIP3      OH2            -8.1505990166      -29.7173546891       29.5613021585  TIP3      358             0.0000000000
     23325       550  TIP3      H1             -7.5625388439      -30.2665063801       29.0286896091  TIP3      358             0.0000000000
     23326       550  TIP3      H2             -8.3022152228      -30.2592384734       30.3481038076  TIP3      358             0.0000000000
     23327       551  TIP3      OH2           -13.0623540893      -33.5973249934       26.0677020831  TIP3      359             0.0000000000
     23328       551  TIP3      H1            -13.4629402879      -34.4676255446       25.9385231807  TIP3      359             0.0000000000
     23329       551  TIP3      H2            -12.4026929164      -33.5919698776       25.3615149403  TIP3      359             0.0000000000
     23330       552  TIP3      OH2            -9.5087558930      -31.3389946790       31.9654075619  TIP3      360             0.0000000000
     23331       552  TIP3      H1            -10.3538874272      -30.8557850216       32.0747905179  TIP3      360             0.0000000000
     23332       552  TIP3      H2             -8.9662745667      -31.0262061966       32.7113945459  TIP3      360             0.0000000000
     23333       553  TIP3      OH2            -1.7532508735      -25.9650348528       32.4772214124  TIP3      361             0.0000000000
     23334       553  TIP3      H1             -1.1823108740      -25.4833166018       31.8511127927  TIP3      361             0.0000000000
     23335       553  TIP3      H2             -2.6099470969      -25.9088846806       32.0070631598  TIP3      361             0.0000000000
     23336       554  TIP3      OH2            -5.0735081540      -32.3097991231       21.8452413997  TIP3      362             0.0000000000
     23337       554  TIP3      H1             -6.0186567579      -32.2441128039       21.7172747522  TIP3      362             0.0000000000
     23338       554  TIP3      H2             -4.7746457148      -31.4542590891       22.1802720540  TIP3      362             0.0000000000
     23339       555  TIP3      OH2            -7.4005204618      -24.9029210910       34.9415463630  TIP3      363             0.0000000000
     23340       555  TIP3      H1             -7.8129483993      -25.3256045517       35.7002907970  TIP3      363             0.0000000000
     23341       555  TIP3      H2             -7.7024120793      -23.9861632891       34.9937523380  TIP3      363             0.0000000000
     23342       556  TIP3      OH2            -4.3296357718      -30.4110311047       23.5345003029  TIP3      364             0.0000000000
     23343       556  TIP3      H1             -3.4197607858      -30.5722894635       23.8641207650  TIP3      364             0.0000000000
     23344       556  TIP3      H2             -4.2604353391      -29.6018466116       23.0034151070  TIP3      364             0.0000000000
     23345       557  TIP3      OH2           -13.8199923780      -25.7704574304       29.4678327651  TIP3      365             0.0000000000
     23346       557  TIP3      H1            -13.1290303709      -25.8434933700       28.7813804376  TIP3      365             0.0000000000
     23347       557  TIP3      H2            -13.7625048651      -26.6287618326       29.9253914047  TIP3      365             0.0000000000
     23348       558  TIP3      OH2           -16.8343040332      -27.3614682785       34.7359379890  TIP3      366             0.0000000000
     23349       558  TIP3      H1            -16.6538276710      -27.8051871087       35.5871413916  TIP3      366             0.0000000000
     23350       558  TIP3      H2            -17.4510335053      -27.9784479925       34.2998135107  TIP3      366             0.0000000000
     23351       559  TIP3      OH2            -9.8257673753      -27.8120782370       36.9145086829  TIP3      367             0.0000000000
     23352       559  TIP3      H1            -10.1403213303      -28.1038637757       36.0490892874  TIP3      367             0.0000000000
     23353       559  TIP3      H2             -8.9046498138      -28.1340098956       36.9086085044  TIP3      367             0.0000000000
     23354       560  TIP3      OH2            -5.1466304752      -22.5055623141       34.8811370694  TIP3      368             0.0000000000
     23355       560  TIP3      H1             -6.0561698409      -22.2832981059       34.6135375853  TIP3      368             0.0000000000
     23356       560  TIP3      H2             -5.1749099779      -22.1583408019       35.7897634787  TIP3      368             0.0000000000
     23357       561  TIP3      OH2             0.5290387788      -24.4368651832       36.0558212007  TIP3      369             0.0000000000
     23358       561  TIP3      H1             -0.3557985727      -24.2024202529       35.6846371171  TIP3      369             0.0000000000
     23359       561  TIP3      H2              1.0778129235      -24.4742556954       35.2488888684  TIP3      369             0.0000000000
     23360       562  TIP3      OH2            -1.2406558510      -21.4552933137       23.6523221691  TIP3      370             0.0000000000
     23361       562  TIP3      H1             -1.5230906614      -22.2931430005       24.0267072967  TIP3      370             0.0000000000
     23362       562  TIP3      H2             -0.8650518931      -21.6721789625       22.7632010875  TIP3      370             0.0000000000
     23363       563  TIP3      OH2            -3.9707578303      -26.6396078545       30.7478361211  TIP3      371             0.0000000000
     23364       563  TIP3      H1             -4.9125291614      -26.8576869706       30.6524062045  TIP3      371             0.0000000000
     23365       563  TIP3      H2             -3.5399871648      -27.4074662026       30.3276909839  TIP3      371             0.0000000000
     23366       564  TIP3      OH2           -11.4553399663      -22.3290464233       26.8279250147  TIP3      372             0.0000000000
     23367       564  TIP3      H1            -10.9529682362      -21.5146136996       26.6325403864  TIP3      372             0.0000000000
     23368       564  TIP3      H2            -12.3403540684      -22.0773951331       26.5319754175  TIP3      372             0.0000000000
     23369       565  TIP3      OH2            -9.9868175868      -24.6307409392       26.4429260975  TIP3      373             0.0000000000
     23370       565  TIP3      H1            -10.3472333740      -23.7246569347       26.4525106656  TIP3      373             0.0000000000
     23371       565  TIP3      H2            -10.7466977181      -25.1237168453       26.8078678482  TIP3      373             0.0000000000
     23372       566  TIP3      OH2            -9.5800961142      -20.4683822447       32.7819807303  TIP3      374             0.0000000000
     23373       566  TIP3      H1             -9.1282784897      -19.6565339026       32.4998608065  TIP3      374             0.0000000000
     23374       566  TIP3      H2             -8.9687746324      -20.8035910029       33.4624243318  TIP3      374             0.0000000000
     23375       567  TIP3      OH2           -11.3459475230      -19.7031186873       26.0084202948  TIP3      375             0.0000000000
     23376       567  TIP3      H1            -12.3009635821      -19.4959063195       26.0169775479  TIP3      375             0.0000000000
     23377       567  TIP3      H2            -10.9857347677      -18.8228141609       26.2177407666  TIP3      375             0.0000000000
     23378       568  TIP3      OH2            -6.0532745815      -24.4610211327       32.4050207387  TIP3      376             0.0000000000
     23379       568  TIP3      H1             -6.3901326443      -24.6567811558       33.3025290331  TIP3      376             0.0000000000
     23380       568  TIP3      H2             -5.4159956356      -25.1732905625       32.2379444106  TIP3      376             0.0000000000
     23381       569  TIP3      OH2            -3.2469184200      -19.8809308615       34.8978194312  TIP3      377             0.0000000000
     23382       569  TIP3      H1             -3.9309487400      -20.3795138355       34.4118763035  TIP3      377             0.0000000000
     23383       569  TIP3      H2             -3.0574305111      -19.1829161692       34.2362718661  TIP3      377             0.0000000000
     23384       570  TIP3      OH2           -15.1868168296      -32.6450123759       34.3066024601  TIP3      378             0.0000000000
     23385       570  TIP3      H1            -16.0942231062      -32.2904212978       34.2622240897  TIP3      378             0.0000000000
     23386       570  TIP3      H2            -15.3205733919      -33.5072589254       34.7302168690  TIP3      378             0.0000000000
     23387       571  TIP3      OH2            -2.9671636181      -24.8579088533       23.7900803034  TIP3      379             0.0000000000
     23388       571  TIP3      H1             -3.1693506665      -25.6505150182       24.3173736880  TIP3      379             0.0000000000
     23389       571  TIP3      H2             -2.0138447604      -24.7612768509       23.9141479794  TIP3      379             0.0000000000
     23390       572  TIP3      OH2           -15.5680064457      -20.8408700789       32.7149082191  TIP3      380             0.0000000000
     23391       572  TIP3      H1            -15.2744912390      -21.7651752467       32.7190249860  TIP3      380             0.0000000000
     23392       572  TIP3      H2            -15.3050111451      -20.5545803865       33.5974231630  TIP3      380             0.0000000000
     23393       573  TIP3      OH2            -6.4375380298      -32.8657538670       33.2318291790  TIP3      381             0.0000000000
     23394       573  TIP3      H1             -5.7417839817      -32.7913109801       33.8978218675  TIP3      381             0.0000000000
     23395       573  TIP3      H2             -6.8161912508      -33.7473945248       33.4109090691  TIP3      381             0.0000000000
     23396       574  TIP3      OH2            -5.6646174798      -33.2708767025       24.3417171175  TIP3      382             0.0000000000
     23397       574  TIP3      H1             -5.4532176180      -32.8168972365       23.5046321734  TIP3      382             0.0000000000
     23398       574  TIP3      H2             -5.1081849323      -32.8192124483       24.9826114705  TIP3      382             0.0000000000
     23399       575  TIP3      OH2            -8.4494091868      -31.5547310196       25.1948656862  TIP3      383             0.0000000000
     23400       575  TIP3      H1             -7.6852387265      -30.9516484371       25.1997988047  TIP3      383             0.0000000000
     23401       575  TIP3      H2             -8.7252862604      -31.6515444470       26.1213272011  TIP3      383             0.0000000000
     23402       576  TIP3      OH2            -7.9022071819      -30.5071523474       34.3357093174  TIP3      384             0.0000000000
     23403       576  TIP3      H1             -7.8391624461      -29.9542846236       35.1375160967  TIP3      384             0.0000000000
     23404       576  TIP3      H2             -7.2558770439      -31.2181463945       34.4358731110  TIP3      384             0.0000000000
     23405       577  TIP3      OH2            -7.5893126222      -34.4641227667       26.1145990847  TIP3      385             0.0000000000
     23406       577  TIP3      H1             -7.9519373256      -33.7729611326       26.6911338925  TIP3      385             0.0000000000
     23407       577  TIP3      H2             -6.9471133487      -33.9428902008       25.5756307202  TIP3      385             0.0000000000
     23408       578  TIP3      OH2            -1.7534310815      -32.6607451940       35.1772378045  TIP3      386             0.0000000000
     23409       578  TIP3      H1             -2.6734804431      -32.3064711597       35.0665027915  TIP3      386             0.0000000000
     23410       578  TIP3      H2             -1.4333426519      -32.6077312581       34.2604007010  TIP3      386             0.0000000000
     23411       579  TIP3      OH2            -3.1308086578      -28.8541783353       29.2021138982  TIP3      387             0.0000000000
     23412       579  TIP3      H1             -3.9568890697      -29.2951724493       28.9231298051  TIP3      387             0.0000000000
     23413       579  TIP3      H2             -2.6611272134      -29.5437399132       29.7213744815  TIP3      387             0.0000000000
     23414       580  TIP3      OH2            -2.0685598607      -19.5931405511       30.8711763028  TIP3      388             0.0000000000
     23415       580  TIP3      H1             -2.1614717282      -18.9117271031       30.1779970583  TIP3      388             0.0000000000
     23416       580  TIP3      H2             -1.1040650389      -19.5396952363       31.0453629017  TIP3      388             0.0000000000
     23417       581  TIP3      OH2           -14.8111938967      -35.3052008848       29.7176912984  TIP3      389             0.0000000000
     23418       581  TIP3      H1            -14.7646195875      -35.3997440338       28.7325289571  TIP3      389             0.0000000000
     23419       581  TIP3      H2            -14.9601544093      -36.2293029830       29.9404888472  TIP3      389             0.0000000000
     23420       582  TIP3      OH2           -15.6277371751      -21.5344372697       25.8268238177  TIP3      390             0.0000000000
     23421       582  TIP3      H1            -16.4830057385      -21.0869870670       25.7732971872  TIP3      390             0.0000000000
     23422       582  TIP3      H2            -15.1406382784      -21.0806180017       25.1262403842  TIP3      390             0.0000000000
     23423       583  TIP3      OH2           -16.4131336398      -18.8960615860       37.1037826824  TIP3      391             0.0000000000
     23424       583  TIP3      H1            -15.8143316189      -19.1006855821       37.8525417301  TIP3      391             0.0000000000
     23425       583  TIP3      H2            -16.8240368557      -19.7611398139       36.9301290072  TIP3      391             0.0000000000
     23426       584  TIP3      OH2           -11.7311501609      -20.0135299735       38.7221471034  TIP3      392             0.0000000000
     23427       584  TIP3      H1            -10.9539684796      -20.4825499195       39.0466499488  TIP3      392             0.0000000000
     23428       584  TIP3      H2            -11.7496980908      -20.2626969267       37.7760977953  TIP3      392             0.0000000000
     23429       585  TIP3      OH2            -7.6004020686      -20.5223635592       20.1718958006  TIP3      393             0.0000000000
     23430       585  TIP3      H1             -8.3236636053      -21.1115627706       20.3397914857  TIP3      393             0.0000000000
     23431       585  TIP3      H2             -6.8605953164      -21.0108747260       19.7974518202  TIP3      393             0.0000000000
     23432       586  TIP3      OH2            -5.2291884004      -21.6014885399       37.4468285885  TIP3      394             0.0000000000
     23433       586  TIP3      H1             -5.5620393520      -22.4726220307       37.7114875527  TIP3      394             0.0000000000
     23434       586  TIP3      H2             -4.4506864202      -21.4491541212       38.0211252516  TIP3      394             0.0000000000
     23435       587  TIP3      OH2           -16.5016489678      -25.1402542474       38.0922903845  TIP3      395             0.0000000000
     23436       587  TIP3      H1            -16.3238598773      -26.0448413588       37.7687963480  TIP3      395             0.0000000000
     23437       587  TIP3      H2            -17.2333505930      -24.8677636694       37.5121900123  TIP3      395             0.0000000000
     23438       588  TIP3      OH2            -9.7144178698      -25.1388519909       37.4364974891  TIP3      396             0.0000000000
     23439       588  TIP3      H1            -10.1365274531      -24.8312888180       36.6095526026  TIP3      396             0.0000000000
     23440       588  TIP3      H2             -9.7185498495      -26.1221174275       37.3539360428  TIP3      396             0.0000000000
     23441       589  TIP3      OH2            -4.0888410011      -25.2692794860       34.9482714220  TIP3      397             0.0000000000
     23442       589  TIP3      H1             -3.3040812780      -24.6927377149       34.7931575421  TIP3      397             0.0000000000
     23443       589  TIP3      H2             -4.7909605480      -24.6041987514       34.8851320200  TIP3      397             0.0000000000
     23444       590  TIP3      OH2           -15.6022599826      -27.9046650374       37.4789617511  TIP3      398             0.0000000000
     23445       590  TIP3      H1            -15.1691924664      -28.7615302699       37.4039266652  TIP3      398             0.0000000000
     23446       590  TIP3      H2            -15.8065199659      -27.8889695964       38.4361596827  TIP3      398             0.0000000000
     23447       591  TIP3      OH2           -11.6798859062      -28.9580571993       34.8338688558  TIP3      399             0.0000000000
     23448       591  TIP3      H1            -12.2781146798      -28.2379729708       35.0955223950  TIP3      399             0.0000000000
     23449       591  TIP3      H2            -11.2906586342      -28.5886028267       34.0226873200  TIP3      399             0.0000000000
     23450       592  TIP3      OH2            -6.5580729486      -26.3447874630       38.3246566407  TIP3      400             0.0000000000
     23451       592  TIP3      H1             -5.6933598707      -26.5389155331       37.9448612113  TIP3      400             0.0000000000
     23452       592  TIP3      H2             -6.8210772875      -27.1891278043       38.7454180230  TIP3      400             0.0000000000
     23453       593  TIP3      OH2           -11.2801535174      -31.5704998019       35.8910984217  TIP3      401             0.0000000000
     23454       593  TIP3      H1            -11.1602491448      -32.2912468187       35.2548938105  TIP3      401             0.0000000000
     23455       593  TIP3      H2            -11.3329363436      -30.7617905751       35.3391767482  TIP3      401             0.0000000000
     23456       594  TIP3      OH2           -10.8796398663      -33.1790293022       33.4176140152  TIP3      402             0.0000000000
     23457       594  TIP3      H1            -10.3618113054      -32.7027921477       32.7273158073  TIP3      402             0.0000000000
     23458       594  TIP3      H2            -11.7725777590      -33.2842558654       33.0093645126  TIP3      402             0.0000000000
     23459       595  TIP3      OH2            -9.3320447499      -27.7126660700       33.6785810276  TIP3      403             0.0000000000
     23460       595  TIP3      H1             -8.5767418610      -27.8754967224       33.1068229201  TIP3      403             0.0000000000
     23461       595  TIP3      H2             -9.6940294531      -26.8741222129       33.3519379013  TIP3      403             0.0000000000
     23462       596  TIP3      OH2            -4.9281814927      -29.9457259916       38.6491154210  TIP3      404             0.0000000000
     23463       596  TIP3      H1             -4.7192403027      -30.8928492302       38.5646171521  TIP3      404             0.0000000000
     23464       596  TIP3      H2             -4.0475882129      -29.5515892965       38.6641118386  TIP3      404             0.0000000000
     23465       597  TIP3      OH2            -3.5895478054      -27.0960698628       36.8759604924  TIP3      405             0.0000000000
     23466       597  TIP3      H1             -3.8394880804      -26.4591109161       36.1655261766  TIP3      405             0.0000000000
     23467       597  TIP3      H2             -2.6476635648      -27.2172916573       36.6076994214  TIP3      405             0.0000000000
     23468       598  TIP3      OH2           -12.8084765419      -30.3280699229       37.8095923187  TIP3      406             0.0000000000
     23469       598  TIP3      H1            -13.5918249812      -30.8941585879       37.6537545647  TIP3      406             0.0000000000
     23470       598  TIP3      H2            -12.1652741275      -30.6954595421       37.1806475358  TIP3      406             0.0000000000
     23471       599  TIP3      OH2           -10.2368420987      -35.5702327499       34.1076244145  TIP3      407             0.0000000000
     23472       599  TIP3      H1            -10.2762725598      -34.6348684729       33.7937507426  TIP3      407             0.0000000000
     23473       599  TIP3      H2            -10.8089379074      -35.9910525818       33.4491663385  TIP3      407             0.0000000000
     23474       600  TIP3      OH2            -8.8355528476      -31.3941329519       37.4546709707  TIP3      408             0.0000000000
     23475       600  TIP3      H1             -9.1087793584      -31.7050042797       38.3337915929  TIP3      408             0.0000000000
     23476       600  TIP3      H2             -9.6051423552      -31.6325363652       36.9097219719  TIP3      408             0.0000000000
     23477       601  TIP3      OH2            -6.0959150707      -32.2709630077       36.5461269077  TIP3      409             0.0000000000
     23478       601  TIP3      H1             -7.0610682126      -32.2494908368       36.6732028560  TIP3      409             0.0000000000
     23479       601  TIP3      H2             -5.8105694619      -32.9104915695       37.2292386299  TIP3      409             0.0000000000
     23480       602  TIP3      OH2            -4.4891603125      -33.5720644071       38.4890585079  TIP3      410             0.0000000000
     23481       602  TIP3      H1             -4.5984803702      -34.5557805786       38.4788296455  TIP3      410             0.0000000000
     23482       602  TIP3      H2             -4.8153149110      -33.3417668051       39.3828122026  TIP3      410             0.0000000000
     23483       603  TIP3      OH2           -14.7509182562      -32.4025484892       37.5400531315  TIP3      411             0.0000000000
     23484       603  TIP3      H1            -14.4703958140      -33.1462488657       36.9815026820  TIP3      411             0.0000000000
     23485       603  TIP3      H2            -14.7982175554      -32.8339328299       38.4215891796  TIP3      411             0.0000000000
     23486       604  TIP3      OH2            -9.8864996344       36.6317642501       36.5589224768  TIP3      412             0.0000000000
     23487       604  TIP3      H1             -9.1978554604       35.9646461205       36.6039522407  TIP3      412             0.0000000000
     23488       604  TIP3      H2             -9.9871583784       36.8475384397       35.6075094060  TIP3      412             0.0000000000
     23489       605  TIP3      OH2            -9.4970850969      -34.6985901761       38.5947078678  TIP3      413             0.0000000000
     23490       605  TIP3      H1             -9.6691275445      -35.2532109773       37.8018326611  TIP3      413             0.0000000000
     23491       605  TIP3      H2            -10.1132506049      -33.9568462730       38.5258376898  TIP3      413             0.0000000000
     23492       606  TIP3      OH2           -16.4121944446      -23.2494496487       21.2849925747  TIP3      414             0.0000000000
     23493       606  TIP3      H1            -15.4678522158      -23.1311688420       21.4494690071  TIP3      414             0.0000000000
     23494       606  TIP3      H2            -16.4074418858      -23.8912799451       20.5632917725  TIP3      414             0.0000000000
     23495       607  TIP3      OH2           -17.7126008508      -17.8611276367       26.2707547192  TIP3      415             0.0000000000
     23496       607  TIP3      H1            -18.4116323212      -18.3564328202       25.7853129638  TIP3      415             0.0000000000
     23497       607  TIP3      H2            -17.4237661785      -18.5275262463       26.9203419308  TIP3      415             0.0000000000
     23498       608  TIP3      OH2           -16.8867795586      -19.7459461161       28.1288209639  TIP3      416             0.0000000000
     23499       608  TIP3      H1            -17.2334326129      -20.6279078717       28.3236884020  TIP3      416             0.0000000000
     23500       608  TIP3      H2            -16.6609149469      -19.4174959150       29.0156338376  TIP3      416             0.0000000000
     23501       609  TIP3      OH2             0.6525248732      -18.9498702864       31.0663417703  TIP3      417             0.0000000000
     23502       609  TIP3      H1              0.6794147217      -18.7853792888       32.0248749898  TIP3      417             0.0000000000
     23503       609  TIP3      H2              1.3582579136      -18.3698543462       30.7625291629  TIP3      417             0.0000000000
     23504       610  TIP3      OH2             0.2294937713      -19.3571899705       34.0185121234  TIP3      418             0.0000000000
     23505       610  TIP3      H1             -0.2440644125      -20.1248662115       33.6332573264  TIP3      418             0.0000000000
     23506       610  TIP3      H2              0.7283473920      -19.8110134824       34.7210290976  TIP3      418             0.0000000000
     23507       611  TIP3      OH2            -1.3345720220      -23.6404164794       38.6699129186  TIP3      419             0.0000000000
     23508       611  TIP3      H1             -2.2007415821      -23.6360249867       39.0887581188  TIP3      419             0.0000000000
     23509       611  TIP3      H2             -0.9350838633      -22.8375415240       39.0817220540  TIP3      419             0.0000000000
     23510       612  TIP3      OH2             0.3798916523      -27.2350823667       25.9744462683  TIP3      420             0.0000000000
     23511       612  TIP3      H1             -0.3899227496      -27.7155220132       26.3452292501  TIP3      420             0.0000000000
     23512       612  TIP3      H2              0.9360468050      -27.0841241894       26.7615966282  TIP3      420             0.0000000000
     23513       613  TIP3      OH2             0.1070137169      -24.5320157118       30.9847542553  TIP3      421             0.0000000000
     23514       613  TIP3      H1              0.9245945252      -24.9048482129       30.6095512439  TIP3      421             0.0000000000
     23515       613  TIP3      H2              0.2573069082      -23.5761068682       30.8296474477  TIP3      421             0.0000000000
     23516       614  TIP3      OH2            -1.3387471269      -21.6323089725       33.2569694303  TIP3      422             0.0000000000
     23517       614  TIP3      H1             -2.0294376510      -21.2875092141       33.8462781764  TIP3      422             0.0000000000
     23518       614  TIP3      H2             -1.8874466764      -22.0333342229       32.5488667381  TIP3      422             0.0000000000
     23519       615  TIP3      OH2            -1.8389130994      -28.7593858141       26.5553861565  TIP3      423             0.0000000000
     23520       615  TIP3      H1             -1.9854676956      -29.7165366595       26.5457929676  TIP3      423             0.0000000000
     23521       615  TIP3      H2             -2.1737403335      -28.5268138107       27.4426400920  TIP3      423             0.0000000000
     23522       616  TIP3      OH2           -16.8278916128      -26.6716276264       30.6196606845  TIP3      424             0.0000000000
     23523       616  TIP3      H1            -16.6404298110      -26.7528707893       29.6575831336  TIP3      424             0.0000000000
     23524       616  TIP3      H2            -15.9328180129      -26.8510367936       30.9721591975  TIP3      424             0.0000000000
     23525       617  TIP3      OH2            -0.9880017984      -26.7929648361       36.2997048479  TIP3      425             0.0000000000
     23526       617  TIP3      H1             -0.3622261411      -27.5497252744       36.3722210241  TIP3      425             0.0000000000
     23527       617  TIP3      H2             -0.3749667907      -26.0285638495       36.2376572854  TIP3      425             0.0000000000
     23528       618  TIP3      OH2             0.5204501861      -28.8905146118       36.8908414756  TIP3      426             0.0000000000
     23529       618  TIP3      H1             -0.3589643514      -29.2916920022       36.7238604765  TIP3      426             0.0000000000
     23530       618  TIP3      H2              1.0984826952      -29.6720184655       36.8290652036  TIP3      426             0.0000000000
     23531       619  TIP3      OH2            -2.1770591197      -31.1685789707       25.0612359515  TIP3      427             0.0000000000
     23532       619  TIP3      H1             -1.8770806886      -32.1002535761       25.1545941159  TIP3      427             0.0000000000
     23533       619  TIP3      H2             -1.3941500266      -30.7806561472       24.6471368467  TIP3      427             0.0000000000
     23534       620  TIP3      OH2            -1.5236357584      -30.6426663880       30.4702886846  TIP3      428             0.0000000000
     23535       620  TIP3      H1             -0.5714083465      -30.3752961771       30.4459661333  TIP3      428             0.0000000000
     23536       620  TIP3      H2             -1.7213964969      -30.4719603291       31.4038069329  TIP3      428             0.0000000000
     23537       621  TIP3      OH2            -1.4683834220      -29.9004136006       33.2356621600  TIP3      429             0.0000000000
     23538       621  TIP3      H1             -2.3437819407      -29.6146692949       33.5717305814  TIP3      429             0.0000000000
     23539       621  TIP3      H2             -1.0279647522      -29.0427913634       33.0258713085  TIP3      429             0.0000000000
     23540       622  TIP3      OH2           -17.2144620819      -31.3618960945       36.7630209509  TIP3      430             0.0000000000
     23541       622  TIP3      H1            -16.2783702486      -31.5613125927       36.9775818373  TIP3      430             0.0000000000
     23542       622  TIP3      H2            -17.6548556582      -32.1879452526       37.0566425986  TIP3      430             0.0000000000
     23543       623  TIP3      OH2             0.8832660003      -35.8237835631       38.6328746751  TIP3      431             0.0000000000
     23544       623  TIP3      H1              1.1286832420      -36.4981077648       37.9816632951  TIP3      431             0.0000000000
     23545       623  TIP3      H2              0.9058746688      -35.0130057917       38.0768681751  TIP3      431             0.0000000000
     23546       624  TIP3      OH2            -1.4975116359      -33.8879701504       25.0550277859  TIP3      432             0.0000000000
     23547       624  TIP3      H1             -1.3130988585      -34.3303045649       25.9070187646  TIP3      432             0.0000000000
     23548       624  TIP3      H2             -2.1250276444      -34.5227447563       24.6158027910  TIP3      432             0.0000000000
     23549       625  TIP3      OH2           -16.0502229955      -33.0303161514       29.6250212118  TIP3      433             0.0000000000
     23550       625  TIP3      H1            -15.5877582398      -33.8681421819       29.8656020941  TIP3      433             0.0000000000
     23551       625  TIP3      H2            -15.4609215364      -32.3680931382       30.0041309387  TIP3      433             0.0000000000
     23552       626  TIP3      OH2           -17.7253160602      -30.0842958615       30.6604250563  TIP3      434             0.0000000000
     23553       626  TIP3      H1            -17.1620094447      -30.3277584908       29.8935153461  TIP3      434             0.0000000000
     23554       626  TIP3      H2            -17.2654348879      -29.2758652092       30.9348941131  TIP3      434             0.0000000000
     23555       627  TIP3      OH2             0.3299140364      -33.7866668769       36.9361778293  TIP3      435             0.0000000000
     23556       627  TIP3      H1             -0.6006365006      -33.4759145698       36.9173981733  TIP3      435             0.0000000000
     23557       627  TIP3      H2              0.3817297388      -34.3073081818       36.1254095548  TIP3      435             0.0000000000
     23558       628  TIP3      OH2           -17.5557847685      -34.1557606472       24.5790645760  TIP3      436             0.0000000000
     23559       628  TIP3      H1            -18.3625678822      -33.6344511321       24.6152384003  TIP3      436             0.0000000000
     23560       628  TIP3      H2            -16.9564027064      -33.4635470468       24.1925284636  TIP3      436             0.0000000000
     23561       629  TIP3      OH2            -2.6118878318      -18.8745192979       26.6798096978  TIP3      437             0.0000000000
     23562       629  TIP3      H1             -1.9315904141      -19.1791624508       26.0578851913  TIP3      437             0.0000000000
     23563       629  TIP3      H2             -2.0988705749      -18.3699450912       27.3295587000  TIP3      437             0.0000000000
     23564       630  TIP3      OH2           -17.3999622723      -35.0799043020       33.0617886547  TIP3      438             0.0000000000
     23565       630  TIP3      H1            -18.0913665084      -35.3386237958       33.6919737858  TIP3      438             0.0000000000
     23566       630  TIP3      H2            -17.8827440535      -34.4850964136       32.4572431831  TIP3      438             0.0000000000
     23567       631  TIP3      OH2           -15.1758746304      -21.9412626772       37.2094720901  TIP3      439             0.0000000000
     23568       631  TIP3      H1            -16.0207501743      -21.7422795963       36.7761992032  TIP3      439             0.0000000000
     23569       631  TIP3      H2            -15.4448298545      -22.0179453892       38.1323650638  TIP3      439             0.0000000000
     23570       632  TIP3      OH2           -12.2746563401      -20.9607065408       33.4802544704  TIP3      440             0.0000000000
     23571       632  TIP3      H1            -12.6135578856      -20.0986856054       33.2020677920  TIP3      440             0.0000000000
     23572       632  TIP3      H2            -11.3492674558      -20.8704823402       33.1713761289  TIP3      440             0.0000000000
     23573       633  TIP3      OH2            -7.9543243328      -19.5339294470       36.3883567686  TIP3      441             0.0000000000
     23574       633  TIP3      H1             -7.8123196701      -19.8841282866       37.3014603307  TIP3      441             0.0000000000
     23575       633  TIP3      H2             -7.0529970982      -19.2352864871       36.1499056764  TIP3      441             0.0000000000
     23576       634  TIP3      OH2            -5.6622687686      -18.2685528332       35.6891343449  TIP3      442             0.0000000000
     23577       634  TIP3      H1             -4.9326672188      -18.8604414827       35.4510930744  TIP3      442             0.0000000000
     23578       634  TIP3      H2             -5.2865458288      -17.8354598075       36.4855100990  TIP3      442             0.0000000000
     23579       635  TIP3      OH2            -0.5936753436      -35.5989417205       34.7135854326  TIP3      443             0.0000000000
     23580       635  TIP3      H1             -1.5157120243      -35.3265731294       34.5558632178  TIP3      443             0.0000000000
     23581       635  TIP3      H2             -0.4507901161      -36.5289626491       34.4089520941  TIP3      443             0.0000000000
     23582       636  TIP3      OH2           -14.8480771204      -17.7205206419       33.4772551235  TIP3      444             0.0000000000
     23583       636  TIP3      H1            -15.5808005427      -17.2269437968       33.0759408515  TIP3      444             0.0000000000
     23584       636  TIP3      H2            -15.1666211187      -17.9238489765       34.3684469673  TIP3      444             0.0000000000
     23585       637  TIP3      OH2           -12.3791764361      -18.1394524784       32.5439430906  TIP3      445             0.0000000000
     23586       637  TIP3      H1            -13.2715048369      -17.9993508247       32.9409744522  TIP3      445             0.0000000000
     23587       637  TIP3      H2            -12.4358628791      -17.5423732256       31.7717401761  TIP3      445             0.0000000000
     23588       638  TIP3      OH2            -7.6725592611      -18.2443534812       31.7204239887  TIP3      446             0.0000000000
     23589       638  TIP3      H1             -8.1337546103      -17.6862205078       31.0721233493  TIP3      446             0.0000000000
     23590       638  TIP3      H2             -7.5388433083      -17.6055440770       32.4520447410  TIP3      446             0.0000000000
     23591       639  TIP3      OH2            -5.3789333337      -19.4144083655       32.7361278726  TIP3      447             0.0000000000
     23592       639  TIP3      H1             -6.2414444837      -19.1470647687       32.3779283580  TIP3      447             0.0000000000
     23593       639  TIP3      H2             -4.9057800576      -18.5694372370       32.6432414076  TIP3      447             0.0000000000
     23594       640  TIP3      OH2            -2.7903375299      -17.8393833170       32.9698628570  TIP3      448             0.0000000000
     23595       640  TIP3      H1             -2.8654084402      -16.8830337925       32.7352642156  TIP3      448             0.0000000000
     23596       640  TIP3      H2             -2.5833695966      -18.2193587605       32.0934931871  TIP3      448             0.0000000000
     23597       641  TIP3      OH2           -15.3981728639      -19.0706949503       30.4163330749  TIP3      449             0.0000000000
     23598       641  TIP3      H1            -15.4733427600      -19.5293879753       31.2800589167  TIP3      449             0.0000000000
     23599       641  TIP3      H2            -14.5811231468      -19.4433027153       30.0258777857  TIP3      449             0.0000000000
     23600       642  TIP3      OH2           -13.3239600966      -20.3582824219       29.0855894672  TIP3      450             0.0000000000
     23601       642  TIP3      H1            -13.4805867973      -21.2948473581       29.2974536897  TIP3      450             0.0000000000
     23602       642  TIP3      H2            -12.4568672475      -20.2102721887       29.5184295856  TIP3      450             0.0000000000
     23603       643  TIP3      OH2           -10.7148139950      -19.8722738824       29.9538525499  TIP3      451             0.0000000000
     23604       643  TIP3      H1            -10.5557053711      -20.7926788739       29.6747992409  TIP3      451             0.0000000000
     23605       643  TIP3      H2            -10.6685485568      -19.9387981438       30.9168468023  TIP3      451             0.0000000000
     23606       644  TIP3      OH2            -7.3586282847      -34.1683153380       29.0682525535  TIP3      452             0.0000000000
     23607       644  TIP3      H1             -7.9536908629      -34.8802690503       29.3472135285  TIP3      452             0.0000000000
     23608       644  TIP3      H2             -6.6954189962      -34.6694019749       28.5566685951  TIP3      452             0.0000000000
     23609       645  TIP3      OH2            -2.1088490612      -36.0966649769       29.2512030097  TIP3      453             0.0000000000
     23610       645  TIP3      H1             -1.5042442761      -35.6121563023       28.6353427752  TIP3      453             0.0000000000
     23611       645  TIP3      H2             -2.9796429275      -35.8246786683       28.9304261470  TIP3      453             0.0000000000
     23612       646  TIP3      OH2            -0.4173509628      -34.9315785800       27.4540635725  TIP3      454             0.0000000000
     23613       646  TIP3      H1              0.2228494232      -35.4952845346       27.0138146560  TIP3      454             0.0000000000
     23614       646  TIP3      H2              0.0565948213      -34.0776804824       27.5471539174  TIP3      454             0.0000000000
     23615       647  TIP3      OH2           -14.9601335258      -35.5791256724       26.9839459041  TIP3      455             0.0000000000
     23616       647  TIP3      H1            -15.6935575618      -35.7967668329       26.3943638995  TIP3      455             0.0000000000
     23617       647  TIP3      H2            -14.4271946183      -36.3914995496       26.9421834576  TIP3      455             0.0000000000
     23618       648  TIP3      OH2           -16.1625277303      -35.8179865324       22.6059850937  TIP3      456             0.0000000000
     23619       648  TIP3      H1            -15.6055953521      -35.1690285003       22.1593250503  TIP3      456             0.0000000000
     23620       648  TIP3      H2            -16.7148452520      -35.2806074087       23.2054083903  TIP3      456             0.0000000000
     23621       649  TIP3      OH2           -10.3540956892      -35.7579441768       26.7225581417  TIP3      457             0.0000000000
     23622       649  TIP3      H1             -9.5075389296      -35.2835271813       26.6464344312  TIP3      457             0.0000000000
     23623       649  TIP3      H2            -10.4501528707      -35.8883484434       27.6689732765  TIP3      457             0.0000000000
     23624       650  TIP3      OH2            -4.9332767710      -35.3045560933       28.5038281308  TIP3      458             0.0000000000
     23625       650  TIP3      H1             -4.7972749673      -35.3438301360       27.5517974634  TIP3      458             0.0000000000
     23626       650  TIP3      H2             -5.0628937176      -36.2840034731       28.5987143999  TIP3      458             0.0000000000
     23627       651  TIP3      OH2            -3.4390846610      -35.6061898092       24.1151738329  TIP3      459             0.0000000000
     23628       651  TIP3      H1             -4.1613188113      -35.0421842912       23.8117587121  TIP3      459             0.0000000000
     23629       651  TIP3      H2             -3.8870921357      -36.4724747329       24.1297234206  TIP3      459             0.0000000000
     23630       652  TIP3      OH2           -16.2484359563      -19.8872530952       23.6967857109  TIP3      460             0.0000000000
     23631       652  TIP3      H1            -16.8382343336      -19.9034521876       22.9229052829  TIP3      460             0.0000000000
     23632       652  TIP3      H2            -16.1637502778      -18.9334349208       23.8223282719  TIP3      460             0.0000000000
     23633       653  TIP3      OH2            -9.2559904402      -33.6353595229       23.5908768522  TIP3      461             0.0000000000
     23634       653  TIP3      H1             -9.0015349904      -34.2437692101       24.2923300787  TIP3      461             0.0000000000
     23635       653  TIP3      H2             -9.2287330291      -32.7690331201       24.0345114586  TIP3      461             0.0000000000
     23636       654  TIP3      OH2            -0.5813795503      -19.0762012654       24.6948478487  TIP3      462             0.0000000000
     23637       654  TIP3      H1             -0.8478229040      -19.8459503246       24.1427635362  TIP3      462             0.0000000000
     23638       654  TIP3      H2             -0.7119303220      -18.3399273449       24.0510090408  TIP3      462             0.0000000000
     23639       655  TIP3      OH2           -15.0913866546      -35.0891105794       36.2834178036  TIP3      463             0.0000000000
     23640       655  TIP3      H1            -15.4197821413      -35.8238872119       36.8066914414  TIP3      463             0.0000000000
     23641       655  TIP3      H2            -14.1866289649      -35.0660122549       36.6854928059  TIP3      463             0.0000000000
     23642       656  TIP3      OH2           -13.2564819116      -35.4794701655       37.9179452907  TIP3      464             0.0000000000
     23643       656  TIP3      H1            -12.3156065449      -35.6945316404       37.7805151481  TIP3      464             0.0000000000
     23644       656  TIP3      H2            -13.4252358211      -36.3248362153       38.3808339055  TIP3      464             0.0000000000
     23645       657  TIP3      OH2            -4.6387671285       36.9891420584       38.1488484785  TIP3      465             0.0000000000
     23646       657  TIP3      H1             -4.6173407382       36.3735925803       38.8988859747  TIP3      465             0.0000000000
     23647       657  TIP3      H2             -3.7851931992       36.7493062913       37.7778701993  TIP3      465             0.0000000000
     23648       658  TIP3      OH2            -1.3892019291      -20.3377983406       36.8369324410  TIP3      466             0.0000000000
     23649       658  TIP3      H1             -2.1766023449      -20.4669758393       36.2651998393  TIP3      466             0.0000000000
     23650       658  TIP3      H2             -1.4931593392      -19.3853128681       37.0252900812  TIP3      466             0.0000000000
     23651       659  TIP3      OH2            13.0753253894      -26.4875097718       26.7890740043  TIP3      467             0.0000000000
     23652       659  TIP3      H1             13.0907647397      -25.5090643492       26.7546899514  TIP3      467             0.0000000000
     23653       659  TIP3      H2             12.3259749193      -26.6821359531       26.2379084196  TIP3      467             0.0000000000
     23654       660  TIP3      OH2            11.9287812231      -27.2128426069       30.2748676239  TIP3      468             0.0000000000
     23655       660  TIP3      H1             11.8852964830      -27.8440074585       31.0025419348  TIP3      468             0.0000000000
     23656       660  TIP3      H2             11.5459517057      -27.6988894765       29.5278882321  TIP3      468             0.0000000000
     23657       661  TIP3      OH2             4.2622697703      -27.5376553564       31.8467403080  TIP3      469             0.0000000000
     23658       661  TIP3      H1              4.3509156570      -28.2166364575       32.5462724910  TIP3      469             0.0000000000
     23659       661  TIP3      H2              5.0119172396      -26.9607768501       32.0633146228  TIP3      469             0.0000000000
     23660       662  TIP3      OH2            15.6027912737      -24.2621930185       28.5715440011  TIP3      470             0.0000000000
     23661       662  TIP3      H1             15.1843205444      -24.9749354863       29.0638106643  TIP3      470             0.0000000000
     23662       662  TIP3      H2             15.6245560961      -23.5445590609       29.2319275891  TIP3      470             0.0000000000
     23663       663  TIP3      OH2             5.1938955223      -23.0847420090       30.3509837868  TIP3      471             0.0000000000
     23664       663  TIP3      H1              4.8771355947      -23.9467627495       30.0213276697  TIP3      471             0.0000000000
     23665       663  TIP3      H2              6.1490914624      -23.2715267237       30.3968876456  TIP3      471             0.0000000000
     23666       664  TIP3      OH2             1.8602461360      -29.4863143722       25.7990765085  TIP3      472             0.0000000000
     23667       664  TIP3      H1              1.3914121600      -28.6280653180       25.7769704239  TIP3      472             0.0000000000
     23668       664  TIP3      H2              1.2722392706      -30.0406849143       25.2825015073  TIP3      472             0.0000000000
     23669       665  TIP3      OH2             2.5331054879      -27.3047792118       27.9246620219  TIP3      473             0.0000000000
     23670       665  TIP3      H1              2.8020907493      -28.1078836153       28.4212234165  TIP3      473             0.0000000000
     23671       665  TIP3      H2              3.2759106945      -27.1855138507       27.3247537753  TIP3      473             0.0000000000
     23672       666  TIP3      OH2            12.7249649774      -19.1011735367       28.8087442321  TIP3      474             0.0000000000
     23673       666  TIP3      H1             13.3693286995      -19.7938186377       28.5184285927  TIP3      474             0.0000000000
     23674       666  TIP3      H2             12.5123840702      -19.4277616638       29.6826382457  TIP3      474             0.0000000000
     23675       667  TIP3      OH2            10.2906271772      -24.8054266789       30.7482669307  TIP3      475             0.0000000000
     23676       667  TIP3      H1             10.6330511297      -25.4289370707       30.0856569247  TIP3      475             0.0000000000
     23677       667  TIP3      H2             11.0934942085      -24.6492924067       31.2759509735  TIP3      475             0.0000000000
     23678       668  TIP3      OH2            18.8481587201      -33.1224419628       31.4741442392  TIP3      476             0.0000000000
     23679       668  TIP3      H1             19.0743312737      -32.5829799633       32.2696200614  TIP3      476             0.0000000000
     23680       668  TIP3      H2             19.4594534286      -32.7372189379       30.8321615067  TIP3      476             0.0000000000
     23681       669  TIP3      OH2            13.5328120783      -30.3350046961       31.0476285334  TIP3      477             0.0000000000
     23682       669  TIP3      H1             13.5793028614      -31.3144298094       31.0909807313  TIP3      477             0.0000000000
     23683       669  TIP3      H2             13.3094817726      -30.1812354525       30.1115783732  TIP3      477             0.0000000000
     23684       670  TIP3      OH2             6.5747628268      -32.2380477063       28.2874898766  TIP3      478             0.0000000000
     23685       670  TIP3      H1              6.6767010088      -31.4015085528       27.7968125751  TIP3      478             0.0000000000
     23686       670  TIP3      H2              6.1643372370      -32.8075890893       27.6072131278  TIP3      478             0.0000000000
     23687       671  TIP3      OH2            14.3314635540      -32.0883840698       26.7579063124  TIP3      479             0.0000000000
     23688       671  TIP3      H1             14.9773211928      -32.6240887160       27.2473561642  TIP3      479             0.0000000000
     23689       671  TIP3      H2             14.8507811393      -31.6808555372       26.0437244170  TIP3      479             0.0000000000
     23690       672  TIP3      OH2             3.1960977531      -29.8322961674       29.0370535053  TIP3      480             0.0000000000
     23691       672  TIP3      H1              3.8679429249      -30.3847421928       29.4838183142  TIP3      480             0.0000000000
     23692       672  TIP3      H2              3.3009359832      -30.1546224456       28.1293404619  TIP3      480             0.0000000000
     23693       673  TIP3      OH2             8.3753968853      -28.2785950589       28.3117946442  TIP3      481             0.0000000000
     23694       673  TIP3      H1              9.0136809217      -28.8651946163       28.7512890760  TIP3      481             0.0000000000
     23695       673  TIP3      H2              7.8258265559      -28.9334707008       27.8330382952  TIP3      481             0.0000000000
     23696       674  TIP3      OH2            19.3467276647      -31.7332912611       33.7636161422  TIP3      482             0.0000000000
     23697       674  TIP3      H1             18.7109720844      -30.9955634070       33.6663977716  TIP3      482             0.0000000000
     23698       674  TIP3      H2             19.3643169270      -31.8523482219       34.7187750921  TIP3      482             0.0000000000
     23699       675  TIP3      OH2             5.4860929738      -33.3012009713       32.3208372217  TIP3      483             0.0000000000
     23700       675  TIP3      H1              5.1689547356      -32.7664310358       31.5659649701  TIP3      483             0.0000000000
     23701       675  TIP3      H2              4.7804946560      -33.1191930222       32.9912916202  TIP3      483             0.0000000000
     23702       676  TIP3      OH2            12.7804337060      -23.8608405188       25.8676734355  TIP3      484             0.0000000000
     23703       676  TIP3      H1             12.4784278322      -24.0953196899       24.9908492623  TIP3      484             0.0000000000
     23704       676  TIP3      H2             12.4680491739      -22.9293674822       25.9581117459  TIP3      484             0.0000000000
     23705       677  TIP3      OH2             7.9945170791      -25.6990615419       32.5744677553  TIP3      485             0.0000000000
     23706       677  TIP3      H1              7.2830148168      -25.0581736656       32.7860673809  TIP3      485             0.0000000000
     23707       677  TIP3      H2              8.7004384678      -25.1035551404       32.2851856106  TIP3      485             0.0000000000
     23708       678  TIP3      OH2            16.2249280489      -33.1626385390       28.6712058000  TIP3      486             0.0000000000
     23709       678  TIP3      H1             15.8363702625      -33.7626227854       29.3329843738  TIP3      486             0.0000000000
     23710       678  TIP3      H2             16.8282756093      -32.6754492450       29.2588139804  TIP3      486             0.0000000000
     23711       679  TIP3      OH2             5.0385599423      -31.4468563074       30.3354180840  TIP3      487             0.0000000000
     23712       679  TIP3      H1              5.6875941330      -30.7994905473       30.6836537628  TIP3      487             0.0000000000
     23713       679  TIP3      H2              5.5598312551      -31.8950727073       29.6210133305  TIP3      487             0.0000000000
     23714       680  TIP3      OH2             6.4384848977      -23.7065521122       33.3956226241  TIP3      488             0.0000000000
     23715       680  TIP3      H1              6.3940830895      -22.7946350407       33.0514957239  TIP3      488             0.0000000000
     23716       680  TIP3      H2              5.5545630502      -23.7819174187       33.8365162177  TIP3      488             0.0000000000
     23717       681  TIP3      OH2            16.1319319100      -22.4201978514       30.9410492774  TIP3      489             0.0000000000
     23718       681  TIP3      H1             15.1640074388      -22.3120892753       31.0630147268  TIP3      489             0.0000000000
     23719       681  TIP3      H2             16.4006188566      -21.5025825293       30.7441472788  TIP3      489             0.0000000000
     23720       682  TIP3      OH2            16.4795503185      -34.1472121716       32.3479582437  TIP3      490             0.0000000000
     23721       682  TIP3      H1             15.7390227724      -33.5346678312       32.2599077070  TIP3      490             0.0000000000
     23722       682  TIP3      H2             17.1990769831      -33.7385968706       31.8266103362  TIP3      490             0.0000000000
     23723       683  TIP3      OH2             9.4041627839      -36.0069222678       29.6416863955  TIP3      491             0.0000000000
     23724       683  TIP3      H1              9.3712987134      -36.9676869157       29.7832327305  TIP3      491             0.0000000000
     23725       683  TIP3      H2              8.6032035806      -35.7380686747       30.1189025783  TIP3      491             0.0000000000
     23726       684  TIP3      OH2            14.3979555044      -20.6406320069       27.5440524703  TIP3      492             0.0000000000
     23727       684  TIP3      H1             14.8183330786      -21.3555568963       27.0240459064  TIP3      492             0.0000000000
     23728       684  TIP3      H2             14.8017450220      -19.8456858471       27.1384621798  TIP3      492             0.0000000000
     23729       685  TIP3      OH2            15.6044475343      -22.6976411731       26.0717083756  TIP3      493             0.0000000000
     23730       685  TIP3      H1             15.3441369474      -23.3866918257       25.4332443541  TIP3      493             0.0000000000
     23731       685  TIP3      H2             15.6287573539      -23.2087965812       26.8982438767  TIP3      493             0.0000000000
     23732       686  TIP3      OH2            17.2210504782      -24.1180309932       34.5425586761  TIP3      494             0.0000000000
     23733       686  TIP3      H1             17.3661923729      -24.7653544774       33.8173669392  TIP3      494             0.0000000000
     23734       686  TIP3      H2             17.4227699491      -23.2707950200       34.1085647177  TIP3      494             0.0000000000
     23735       687  TIP3      OH2            19.1061207872      -27.8036841301       32.5923875211  TIP3      495             0.0000000000
     23736       687  TIP3      H1             18.4434113993      -27.0854653786       32.6301534157  TIP3      495             0.0000000000
     23737       687  TIP3      H2             19.5915109317      -27.5755594069       31.7784676174  TIP3      495             0.0000000000
     23738       688  TIP3      OH2            15.0852991346      -28.8472223813       34.3465515445  TIP3      496             0.0000000000
     23739       688  TIP3      H1             15.0945730254      -28.0285523768       34.8699649567  TIP3      496             0.0000000000
     23740       688  TIP3      H2             14.4571385114      -28.5546687138       33.6545592299  TIP3      496             0.0000000000
     23741       689  TIP3      OH2             6.7492318705      -26.3518547489       27.1434766251  TIP3      497             0.0000000000
     23742       689  TIP3      H1              6.4606763673      -26.7531391851       26.2958889498  TIP3      497             0.0000000000
     23743       689  TIP3      H2              7.3803986489      -27.0299116823       27.4834445237  TIP3      497             0.0000000000
     23744       690  TIP3      OH2             8.0931685871      -22.9634001513       29.8323053737  TIP3      498             0.0000000000
     23745       690  TIP3      H1              8.0795480999      -23.4904470278       29.0230870901  TIP3      498             0.0000000000
     23746       690  TIP3      H2              8.8782296462      -23.3249362861       30.2825063445  TIP3      498             0.0000000000
     23747       691  TIP3      OH2             7.1067026050      -27.6075703858       30.8006025555  TIP3      499             0.0000000000
     23748       691  TIP3      H1              7.6592135506      -27.5010020088       30.0026308784  TIP3      499             0.0000000000
     23749       691  TIP3      H2              7.4887828670      -26.9412339132       31.4140667829  TIP3      499             0.0000000000
     23750       692  TIP3      OH2            13.5162878559      -22.0408988097       31.5088079015  TIP3      500             0.0000000000
     23751       692  TIP3      H1             13.2269803858      -21.4030556941       32.1666171429  TIP3      500             0.0000000000
     23752       692  TIP3      H2             13.2590400219      -22.8940178908       31.9343023474  TIP3      500             0.0000000000
     23753       693  TIP3      OH2             8.0547084414      -23.1789567855       35.4984878565  TIP3      501             0.0000000000
     23754       693  TIP3      H1              7.6504867654      -22.4332802982       35.9867291495  TIP3      501             0.0000000000
     23755       693  TIP3      H2              7.3794795627      -23.3736776741       34.8025289136  TIP3      501             0.0000000000
     23756       694  TIP3      OH2             4.9944004822      -27.0164576085       34.6628263848  TIP3      502             0.0000000000
     23757       694  TIP3      H1              5.0440845899      -26.3485039236       35.3729031656  TIP3      502             0.0000000000
     23758       694  TIP3      H2              4.0565759211      -26.9185956865       34.4402532489  TIP3      502             0.0000000000
     23759       695  TIP3      OH2            11.7482298980      -21.1042505130       26.3609719183  TIP3      503             0.0000000000
     23760       695  TIP3      H1             12.1896445544      -20.7869113395       27.1573313843  TIP3      503             0.0000000000
     23761       695  TIP3      H2             11.1853695323      -20.3553520103       26.1233594042  TIP3      503             0.0000000000
     23762       696  TIP3      OH2             6.2980449662      -21.1381826608       36.2485373161  TIP3      504             0.0000000000
     23763       696  TIP3      H1              6.2443066829      -21.2443118093       35.2838332044  TIP3      504             0.0000000000
     23764       696  TIP3      H2              5.3667511914      -21.2701156312       36.5125934752  TIP3      504             0.0000000000
     23765       697  TIP3      OH2             5.7891317646      -27.3337034271       24.7152605306  TIP3      505             0.0000000000
     23766       697  TIP3      H1              5.4912541163      -26.5341938697       24.2655489113  TIP3      505             0.0000000000
     23767       697  TIP3      H2              5.1062944080      -27.9876526126       24.5546966155  TIP3      505             0.0000000000
     23768       698  TIP3      OH2             1.8300123902      -24.9054341660       33.6472458940  TIP3      506             0.0000000000
     23769       698  TIP3      H1              1.3836274924      -24.9844519156       32.7849768136  TIP3      506             0.0000000000
     23770       698  TIP3      H2              1.9056273588      -25.8519553666       33.8674905081  TIP3      506             0.0000000000
     23771       699  TIP3      OH2             1.5889297353      -22.1520878945       30.4288217072  TIP3      507             0.0000000000
     23772       699  TIP3      H1              2.5462998452      -22.2811146106       30.4040816738  TIP3      507             0.0000000000
     23773       699  TIP3      H2              1.5119780661      -21.3434753648       30.9473456748  TIP3      507             0.0000000000
     23774       700  TIP3      OH2            19.8245639633      -21.4623174019       36.0922136388  TIP3      508             0.0000000000
     23775       700  TIP3      H1             19.7161041351      -22.4239158869       36.1015149949  TIP3      508             0.0000000000
     23776       700  TIP3      H2             18.9706296141      -21.2159892329       36.5252725064  TIP3      508             0.0000000000
     23777       701  TIP3      OH2            10.7896280749      -21.9201822211       34.9856423346  TIP3      509             0.0000000000
     23778       701  TIP3      H1             10.8503624208      -21.0832250894       35.5050446248  TIP3      509             0.0000000000
     23779       701  TIP3      H2              9.9162228353      -22.2778131144       35.2359634484  TIP3      509             0.0000000000
     23780       702  TIP3      OH2            11.2289190808      -18.1599519159       24.7848279022  TIP3      510             0.0000000000
     23781       702  TIP3      H1             11.1312090692      -18.2325182909       23.8211118636  TIP3      510             0.0000000000
     23782       702  TIP3      H2             11.2542230524      -17.1990977321       24.9460844432  TIP3      510             0.0000000000
     23783       703  TIP3      OH2             4.8194945107      -19.2797827020       26.5884467837  TIP3      511             0.0000000000
     23784       703  TIP3      H1              5.0364651600      -19.6900047073       27.4662847511  TIP3      511             0.0000000000
     23785       703  TIP3      H2              3.9954950787      -19.7504899389       26.4239323498  TIP3      511             0.0000000000
     23786       704  TIP3      OH2            13.9522388107      -18.9868082643       24.5957629098  TIP3      512             0.0000000000
     23787       704  TIP3      H1             12.9893252382      -18.9681720266       24.7414969141  TIP3      512             0.0000000000
     23788       704  TIP3      H2             14.2256416619      -19.7762960267       25.0852405585  TIP3      512             0.0000000000
     23789       705  TIP3      OH2            16.9737832783      -30.0045824757       36.5762571616  TIP3      513             0.0000000000
     23790       705  TIP3      H1             16.5030711763      -29.5442392375       35.8649530222  TIP3      513             0.0000000000
     23791       705  TIP3      H2             16.9647747984      -30.9267629013       36.2818469599  TIP3      513             0.0000000000
     23792       706  TIP3      OH2             4.1159899510      -23.5842408018       34.5946655347  TIP3      514             0.0000000000
     23793       706  TIP3      H1              4.3404327403      -23.9534012684       35.4750453891  TIP3      514             0.0000000000
     23794       706  TIP3      H2              3.2480904503      -23.9847393807       34.3817712195  TIP3      514             0.0000000000
     23795       707  TIP3      OH2             6.7731194149      -35.1479845254       30.5789151694  TIP3      515             0.0000000000
     23796       707  TIP3      H1              5.8821292251      -35.2095321624       30.1811802167  TIP3      515             0.0000000000
     23797       707  TIP3      H2              6.6685766073      -34.2894742774       31.0192456588  TIP3      515             0.0000000000
     23798       708  TIP3      OH2            11.4202635712      -35.4270182304       33.9492030903  TIP3      516             0.0000000000
     23799       708  TIP3      H1             11.8400502802      -35.8374254040       34.7058302825  TIP3      516             0.0000000000
     23800       708  TIP3      H2             10.4671610216      -35.5375688408       34.1117722841  TIP3      516             0.0000000000
     23801       709  TIP3      OH2            14.7268081867      -31.6471791776       34.7885188408  TIP3      517             0.0000000000
     23802       709  TIP3      H1             14.1624513624      -31.7954210439       35.5854133021  TIP3      517             0.0000000000
     23803       709  TIP3      H2             14.5661231768      -30.7135042871       34.5609110006  TIP3      517             0.0000000000
     23804       710  TIP3      OH2            11.0130294640      -32.8669856824       21.2302298886  TIP3      518             0.0000000000
     23805       710  TIP3      H1             10.8210391979      -32.9353296314       22.1763058779  TIP3      518             0.0000000000
     23806       710  TIP3      H2             10.8366698897      -33.7656798152       20.9553123139  TIP3      518             0.0000000000
     23807       711  TIP3      OH2             6.9022151402      -30.1416165723       31.7940678448  TIP3      519             0.0000000000
     23808       711  TIP3      H1              6.1655744826      -30.1564682395       32.4333097317  TIP3      519             0.0000000000
     23809       711  TIP3      H2              6.8529924302      -29.2307282688       31.4278100163  TIP3      519             0.0000000000
     23810       712  TIP3      OH2             6.8404990666      -30.0167050985       26.6716180773  TIP3      520             0.0000000000
     23811       712  TIP3      H1              5.9112731370      -30.2892500909       26.5248795913  TIP3      520             0.0000000000
     23812       712  TIP3      H2              7.2413419813      -30.3052979502       25.8265610633  TIP3      520             0.0000000000
     23813       713  TIP3      OH2            12.4258003196      -29.4850249014       25.4157303632  TIP3      521             0.0000000000
     23814       713  TIP3      H1             11.9511194127      -28.7147114011       25.1024565311  TIP3      521             0.0000000000
     23815       713  TIP3      H2             13.0745015993      -29.6983922009       24.7172703946  TIP3      521             0.0000000000
     23816       714  TIP3      OH2            11.4432429930      -29.3090860637       36.8685400412  TIP3      522             0.0000000000
     23817       714  TIP3      H1             10.9103588469      -30.0818968550       37.1775837481  TIP3      522             0.0000000000
     23818       714  TIP3      H2             12.2763066080      -29.4351496656       37.3520307799  TIP3      522             0.0000000000
     23819       715  TIP3      OH2            13.5124117037      -30.0341862417       28.2350494201  TIP3      523             0.0000000000
     23820       715  TIP3      H1             13.1201353949      -29.4650586396       27.5419762931  TIP3      523             0.0000000000
     23821       715  TIP3      H2             13.4358763096      -30.8957465219       27.7758448513  TIP3      523             0.0000000000
     23822       716  TIP3      OH2             4.5237065485      -29.8782293754       33.4852554534  TIP3      524             0.0000000000
     23823       716  TIP3      H1              4.5939478282      -29.4762589908       34.3682183786  TIP3      524             0.0000000000
     23824       716  TIP3      H2              4.0744085843      -30.7128678675       33.6826369040  TIP3      524             0.0000000000
     23825       717  TIP3      OH2             1.1926146949      -32.7511601659       27.4301798479  TIP3      525             0.0000000000
     23826       717  TIP3      H1              1.8542837750      -32.8004511761       28.1565836978  TIP3      525             0.0000000000
     23827       717  TIP3      H2              1.6406565955      -33.1364434304       26.6561519106  TIP3      525             0.0000000000
     23828       718  TIP3      OH2            12.6044310358      -28.4392900974       32.8429928398  TIP3      526             0.0000000000
     23829       718  TIP3      H1             12.9838445520      -29.1227009417       32.2589503475  TIP3      526             0.0000000000
     23830       718  TIP3      H2             12.1481469981      -28.9733693345       33.5176369372  TIP3      526             0.0000000000
     23831       719  TIP3      OH2             9.4166220167      -32.4869536918       27.6470973405  TIP3      527             0.0000000000
     23832       719  TIP3      H1              8.4877329351      -32.4734645482       27.9607179790  TIP3      527             0.0000000000
     23833       719  TIP3      H2              9.9071468648      -32.6203138683       28.4758933925  TIP3      527             0.0000000000
     23834       720  TIP3      OH2             4.2212734246      -30.8835532406       26.5239201273  TIP3      528             0.0000000000
     23835       720  TIP3      H1              3.3301337232      -30.7840955180       26.1308982705  TIP3      528             0.0000000000
     23836       720  TIP3      H2              4.5257366656      -31.7218388089       26.1334859045  TIP3      528             0.0000000000
     23837       721  TIP3      OH2             7.8369819689      -30.8408900330       24.2111329405  TIP3      529             0.0000000000
     23838       721  TIP3      H1              8.8046894147      -30.7998653242       24.3220735923  TIP3      529             0.0000000000
     23839       721  TIP3      H2              7.6497999359      -30.2159472037       23.4915816025  TIP3      529             0.0000000000
     23840       722  TIP3      OH2            13.8259550997      -33.2055312255       30.8688590644  TIP3      530             0.0000000000
     23841       722  TIP3      H1             13.1555295927      -33.1814337229       31.5956768216  TIP3      530             0.0000000000
     23842       722  TIP3      H2             13.2945684102      -33.5405392253       30.1336454899  TIP3      530             0.0000000000
     23843       723  TIP3      OH2             6.6215551547      -29.6439061849       21.7671014170  TIP3      531             0.0000000000
     23844       723  TIP3      H1              6.0754146574      -30.0448707518       21.0774067063  TIP3      531             0.0000000000
     23845       723  TIP3      H2              7.4330178463      -29.5071158419       21.2671610444  TIP3      531             0.0000000000
     23846       724  TIP3      OH2            17.0182930795      -17.5894359277       37.2673040801  TIP3      532             0.0000000000
     23847       724  TIP3      H1             17.2940175477      -17.2206278066       36.4069554430  TIP3      532             0.0000000000
     23848       724  TIP3      H2             17.7471987858      -17.2792660596       37.8311467394  TIP3      532             0.0000000000
     23849       725  TIP3      OH2             4.7096244987      -25.1331912823       36.8138761352  TIP3      533             0.0000000000
     23850       725  TIP3      H1              5.4105338614      -24.8784515859       37.4359592623  TIP3      533             0.0000000000
     23851       725  TIP3      H2              3.9172653961      -25.0295207905       37.3833558569  TIP3      533             0.0000000000
     23852       726  TIP3      OH2            10.7277042596      -29.7112636303       29.5503339290  TIP3      534             0.0000000000
     23853       726  TIP3      H1             11.2859537033      -30.2884067424       29.0280389616  TIP3      534             0.0000000000
     23854       726  TIP3      H2             10.5324420817      -30.2451825953       30.3383214662  TIP3      534             0.0000000000
     23855       727  TIP3      OH2             5.6911376703      -33.5504370606       26.0073233015  TIP3      535             0.0000000000
     23856       727  TIP3      H1              5.4064068200      -34.4751518240       26.0081928249  TIP3      535             0.0000000000
     23857       727  TIP3      H2              6.4827447743      -33.6215308190       25.4574793903  TIP3      535             0.0000000000
     23858       728  TIP3      OH2             9.3471500969      -31.3365582444       31.9607479575  TIP3      536             0.0000000000
     23859       728  TIP3      H1              8.5018830317      -30.8562510527       32.0754196626  TIP3      536             0.0000000000
     23860       728  TIP3      H2              9.8896574408      -31.0279896367       32.7112853725  TIP3      536             0.0000000000
     23861       729  TIP3      OH2            17.1036730341      -25.9659980446       32.4760433399  TIP3      537             0.0000000000
     23862       729  TIP3      H1             17.6739218827      -25.4829805702       31.8506103057  TIP3      537             0.0000000000
     23863       729  TIP3      H2             16.2459161950      -25.9086861174       32.0083813508  TIP3      537             0.0000000000
     23864       730  TIP3      OH2            11.4143846331      -24.9053603882       34.9100831647  TIP3      538             0.0000000000
     23865       730  TIP3      H1             11.0633067227      -25.3212160920       35.7049120624  TIP3      538             0.0000000000
     23866       730  TIP3      H2             11.1687965187      -23.9786729475       35.0160601379  TIP3      538             0.0000000000
     23867       731  TIP3      OH2            14.4652839360      -30.3545277435       23.6202341368  TIP3      539             0.0000000000
     23868       731  TIP3      H1             15.3814365041      -30.5959438306       23.8348241621  TIP3      539             0.0000000000
     23869       731  TIP3      H2             14.6008599268      -29.7125022749       22.9067543127  TIP3      539             0.0000000000
     23870       732  TIP3      OH2             5.0376011695      -25.7771220500       29.4734402678  TIP3      540             0.0000000000
     23871       732  TIP3      H1              5.7328872307      -25.8522661795       28.7898382493  TIP3      540             0.0000000000
     23872       732  TIP3      H2              5.0990887499      -26.6333198776       29.9333194670  TIP3      540             0.0000000000
     23873       733  TIP3      OH2            11.9893340450      -23.7273929487       22.7529754343  TIP3      541             0.0000000000
     23874       733  TIP3      H1             11.7028094473      -22.8333883071       23.0477090792  TIP3      541             0.0000000000
     23875       733  TIP3      H2             11.2153285514      -24.2566565296       22.9206709687  TIP3      541             0.0000000000
     23876       734  TIP3      OH2             2.0178498350      -27.3637174069       34.7566914769  TIP3      542             0.0000000000
     23877       734  TIP3      H1              2.2006174580      -27.8141769519       35.5999225533  TIP3      542             0.0000000000
     23878       734  TIP3      H2              1.4101368505      -27.9770805343       34.3032846913  TIP3      542             0.0000000000
     23879       735  TIP3      OH2             9.0344980974      -27.8118128200       36.9186496357  TIP3      543             0.0000000000
     23880       735  TIP3      H1              8.7215682020      -28.1037364404       36.0515405007  TIP3      543             0.0000000000
     23881       735  TIP3      H2              9.9632004659      -28.1188829877       36.9138425237  TIP3      543             0.0000000000
     23882       736  TIP3      OH2            13.7163809857      -22.4731500027       34.8615731354  TIP3      544             0.0000000000
     23883       736  TIP3      H1             12.7914173379      -22.2898905584       34.6283894655  TIP3      544             0.0000000000
     23884       736  TIP3      H2             13.6866229767      -22.1843011639       35.7936099558  TIP3      544             0.0000000000
     23885       737  TIP3      OH2            19.3796754830      -24.4322996533       36.0603696748  TIP3      545             0.0000000000
     23886       737  TIP3      H1             18.4883471926      -24.2057979907       35.6951383675  TIP3      545             0.0000000000
     23887       737  TIP3      H2             19.9269590793      -24.4733936217       35.2511457039  TIP3      545             0.0000000000
     23888       738  TIP3      OH2            14.8846132346      -26.6526601738       30.7504608199  TIP3      546             0.0000000000
     23889       738  TIP3      H1             13.9361098284      -26.8468495509       30.6547942905  TIP3      546             0.0000000000
     23890       738  TIP3      H2             15.3126990390      -27.4037895034       30.3191452096  TIP3      546             0.0000000000
     23891       739  TIP3      OH2             7.3966532237      -22.3229521721       26.8560919386  TIP3      547             0.0000000000
     23892       739  TIP3      H1              7.9070512189      -21.5262403487       26.6332939836  TIP3      547             0.0000000000
     23893       739  TIP3      H2              6.5339717363      -22.0687715127       26.5268114046  TIP3      547             0.0000000000
     23894       740  TIP3      OH2             8.8281596265      -24.6500143588       26.4181340633  TIP3      548             0.0000000000
     23895       740  TIP3      H1              8.5234588851      -23.7240543687       26.4667300061  TIP3      548             0.0000000000
     23896       740  TIP3      H2              8.0797340413      -25.1258536487       26.8160769193  TIP3      548             0.0000000000
     23897       741  TIP3      OH2             9.2761085551      -20.4682622131       32.7819671516  TIP3      549             0.0000000000
     23898       741  TIP3      H1              9.7284074521      -19.6571120526       32.4988930895  TIP3      549             0.0000000000
     23899       741  TIP3      H2              9.8871956718      -20.8036258338       33.4624310677  TIP3      549             0.0000000000
     23900       742  TIP3      OH2             7.4832659242      -19.6805092687       25.9566846334  TIP3      550             0.0000000000
     23901       742  TIP3      H1              6.5383365134      -19.5114429149       26.0612997565  TIP3      550             0.0000000000
     23902       742  TIP3      H2              7.8837526701      -18.8340641496       26.2308990469  TIP3      550             0.0000000000
     23903       743  TIP3      OH2            12.8019674205      -24.4611266620       32.4071478181  TIP3      551             0.0000000000
     23904       743  TIP3      H1             12.4688907533      -24.6564003809       33.3081102873  TIP3      551             0.0000000000
     23905       743  TIP3      H2             13.4409398967      -25.1722600984       32.2399993064  TIP3      551             0.0000000000
     23906       744  TIP3      OH2            15.6089211969      -19.8814283825       34.8980317245  TIP3      552             0.0000000000
     23907       744  TIP3      H1             14.9242487537      -20.3798710001       34.4119617310  TIP3      552             0.0000000000
     23908       744  TIP3      H2             15.7982514133      -19.1832977322       34.2363067441  TIP3      552             0.0000000000
     23909       745  TIP3      OH2             3.6740549558      -32.6372599875       34.3182601175  TIP3      553             0.0000000000
     23910       745  TIP3      H1              2.7699680999      -32.2782719755       34.2753616522  TIP3      553             0.0000000000
     23911       745  TIP3      H2              3.5492766308      -33.5090240911       34.7231346483  TIP3      553             0.0000000000
     23912       746  TIP3      OH2            15.8907262116      -24.7841385312       23.8064147073  TIP3      554             0.0000000000
     23913       746  TIP3      H1             15.7515288432      -25.5524147126       24.3361149956  TIP3      554             0.0000000000
     23914       746  TIP3      H2             16.8628171846      -24.6978629387       23.8864649719  TIP3      554             0.0000000000
     23915       747  TIP3      OH2             3.2878475936      -20.8400029502       32.7147807884  TIP3      555             0.0000000000
     23916       747  TIP3      H1              3.5864277298      -21.7626464486       32.7170162291  TIP3      555             0.0000000000
     23917       747  TIP3      H2              3.5507732734      -20.5544725206       33.5975328838  TIP3      555             0.0000000000
     23918       748  TIP3      OH2            12.4160742736      -32.8680103794       33.2281276922  TIP3      556             0.0000000000
     23919       748  TIP3      H1             13.1285896009      -32.8025148001       33.8758562465  TIP3      556             0.0000000000
     23920       748  TIP3      H2             12.0415236251      -33.7510823613       33.4104583127  TIP3      556             0.0000000000
     23921       749  TIP3      OH2            13.1578668264      -33.2165979831       24.3342680604  TIP3      557             0.0000000000
     23922       749  TIP3      H1             13.3834088943      -32.7865040528       23.4876553299  TIP3      557             0.0000000000
     23923       749  TIP3      H2             13.7580324573      -32.8188000536       24.9562305712  TIP3      557             0.0000000000
     23924       750  TIP3      OH2            10.8598003618      -21.1017669933       23.1494211902  TIP3      558             0.0000000000
     23925       750  TIP3      H1             10.0369275568      -20.5827982605       23.2016576972  TIP3      558             0.0000000000
     23926       750  TIP3      H2             11.3902325282      -20.5708623130       22.5483591651  TIP3      558             0.0000000000
     23927       751  TIP3      OH2            10.3543956217      -31.5252365050       25.1542478451  TIP3      559             0.0000000000
     23928       751  TIP3      H1             11.1613138644      -30.9842477362       25.1658817216  TIP3      559             0.0000000000
     23929       751  TIP3      H2             10.1245785536      -31.6569338935       26.0965057007  TIP3      559             0.0000000000
     23930       752  TIP3      OH2            10.9404635091      -30.5071323250       34.3401153918  TIP3      560             0.0000000000
     23931       752  TIP3      H1             11.0149911892      -29.9551527104       35.1408298153  TIP3      560             0.0000000000
     23932       752  TIP3      H2             11.5965706316      -31.2077411760       34.4399921241  TIP3      560             0.0000000000
     23933       753  TIP3      OH2            11.2505851788      -34.4766175620       26.0998585207  TIP3      561             0.0000000000
     23934       753  TIP3      H1             10.8906159224      -33.7945493696       26.6868067707  TIP3      561             0.0000000000
     23935       753  TIP3      H2             11.8904328234      -33.9353636313       25.5816362104  TIP3      561             0.0000000000
     23936       754  TIP3      OH2             6.9120103493      -33.4017795599       22.7614938775  TIP3      562             0.0000000000
     23937       754  TIP3      H1              6.7998143539      -32.4907358229       23.0901167781  TIP3      562             0.0000000000
     23938       754  TIP3      H2              7.8462454751      -33.5575875805       22.9895935147  TIP3      562             0.0000000000
     23939       755  TIP3      OH2            17.1171976478      -32.6385251370       35.1936689778  TIP3      563             0.0000000000
     23940       755  TIP3      H1             16.1874093357      -32.3229792405       35.0680735532  TIP3      563             0.0000000000
     23941       755  TIP3      H2             17.4126947317      -32.6609058235       34.2636618681  TIP3      563             0.0000000000
     23942       756  TIP3      OH2            15.7608795286      -28.9021090675       29.1383358947  TIP3      564             0.0000000000
     23943       756  TIP3      H1             14.8439559772      -29.2205125578       28.9880947189  TIP3      564             0.0000000000
     23944       756  TIP3      H2             16.1851481523      -29.4702061908       29.8229888199  TIP3      564             0.0000000000
     23945       757  TIP3      OH2            16.7887607642      -19.5954393499       30.8706378946  TIP3      565             0.0000000000
     23946       757  TIP3      H1             16.6944249775      -18.9136267592       30.1782150233  TIP3      565             0.0000000000
     23947       757  TIP3      H2             17.7529906337      -19.5397008822       31.0451157113  TIP3      565             0.0000000000
     23948       758  TIP3      OH2             4.0326528070      -35.3097752085       29.7227419689  TIP3      566             0.0000000000
     23949       758  TIP3      H1              4.0933224219      -35.4079613370       28.7436290871  TIP3      566             0.0000000000
     23950       758  TIP3      H2              3.9156856927      -36.2383384960       29.9379620022  TIP3      566             0.0000000000
     23951       759  TIP3      OH2             3.2259249914      -21.5125080483       25.7792149690  TIP3      567             0.0000000000
     23952       759  TIP3      H1              2.3541141872      -21.0933409148       25.7816028238  TIP3      567             0.0000000000
     23953       759  TIP3      H2              3.7570530798      -21.0718680298       25.1267457775  TIP3      567             0.0000000000
     23954       760  TIP3      OH2             2.4450569820      -18.8958443864       37.1032516240  TIP3      568             0.0000000000
     23955       760  TIP3      H1              3.0414613514      -19.1002059289       37.8525948730  TIP3      568             0.0000000000
     23956       760  TIP3      H2              2.0295665826      -19.7581496567       36.9298554565  TIP3      568             0.0000000000
     23957       761  TIP3      OH2             7.1223105762      -20.0077174174       38.7171592294  TIP3      569             0.0000000000
     23958       761  TIP3      H1              7.8957623393      -20.4810862523       39.0445672001  TIP3      569             0.0000000000
     23959       761  TIP3      H2              7.1052508680      -20.2631926887       37.7737976952  TIP3      569             0.0000000000
     23960       762  TIP3      OH2            13.6185153173      -21.5936565470       37.4493029968  TIP3      570             0.0000000000
     23961       762  TIP3      H1             13.3115007715      -22.4852391969       37.7151238572  TIP3      570             0.0000000000
     23962       762  TIP3      H2             14.4005438780      -21.4772139149       38.0231847041  TIP3      570             0.0000000000
     23963       763  TIP3      OH2             2.3501931805      -25.1446483717       38.0955999101  TIP3      571             0.0000000000
     23964       763  TIP3      H1              2.5331794781      -26.0445765957       37.7636888885  TIP3      571             0.0000000000
     23965       763  TIP3      H2              1.6239018516      -24.8644784570       37.5096216984  TIP3      571             0.0000000000
     23966       764  TIP3      OH2             9.0785343787      -25.1508658295       37.4628271067  TIP3      572             0.0000000000
     23967       764  TIP3      H1              8.7320938637      -24.8382375747       36.6079508640  TIP3      572             0.0000000000
     23968       764  TIP3      H2              9.1582255813      -26.1269217731       37.3550284817  TIP3      572             0.0000000000
     23969       765  TIP3      OH2            12.1011755420      -23.7283793305       19.9045429860  TIP3      573             0.0000000000
     23970       765  TIP3      H1             11.8666099367      -23.5498457080       20.8278161269  TIP3      573             0.0000000000
     23971       765  TIP3      H2             11.8830522200      -24.6453470543       19.7488725446  TIP3      573             0.0000000000
     23972       766  TIP3      OH2            14.7712696508      -25.2772321623       34.8761052286  TIP3      574             0.0000000000
     23973       766  TIP3      H1             15.5541863234      -24.6884999156       34.8054464018  TIP3      574             0.0000000000
     23974       766  TIP3      H2             14.0672738323      -24.6138423838       34.9157593744  TIP3      574             0.0000000000
     23975       767  TIP3      OH2             3.2634324087      -27.9054528894       37.4794096062  TIP3      575             0.0000000000
     23976       767  TIP3      H1              3.6854057761      -28.7649095932       37.3824535290  TIP3      575             0.0000000000
     23977       767  TIP3      H2              3.0400097171      -27.8891126707       38.4286091150  TIP3      575             0.0000000000
     23978       768  TIP3      OH2             7.9154033659      -26.7975853212       22.5104995210  TIP3      576             0.0000000000
     23979       768  TIP3      H1              7.4552902939      -27.2819838054       23.2064212293  TIP3      576             0.0000000000
     23980       768  TIP3      H2              8.1707832514      -27.4913601601       21.8726041620  TIP3      576             0.0000000000
     23981       769  TIP3      OH2             7.1756443626      -28.9577946822       34.8335578577  TIP3      577             0.0000000000
     23982       769  TIP3      H1              6.5815632524      -28.2333672226       35.0887528122  TIP3      577             0.0000000000
     23983       769  TIP3      H2              7.5668418512      -28.5893724925       34.0233909230  TIP3      577             0.0000000000
     23984       770  TIP3      OH2             8.9816173995      -28.4839374419       20.7188497473  TIP3      578             0.0000000000
     23985       770  TIP3      H1              8.8102222280      -28.7780379416       19.8137085302  TIP3      578             0.0000000000
     23986       770  TIP3      H2              9.9438439278      -28.5070883780       20.7815050113  TIP3      578             0.0000000000
     23987       771  TIP3      OH2            12.2390045010      -26.3881414005       38.2314090815  TIP3      579             0.0000000000
     23988       771  TIP3      H1             13.1908183119      -26.4076578075       38.0529885409  TIP3      579             0.0000000000
     23989       771  TIP3      H2             12.0778572371      -27.1721012577       38.7763946775  TIP3      579             0.0000000000
     23990       772  TIP3      OH2             7.5709037812      -31.5721878897       35.8837273069  TIP3      580             0.0000000000
     23991       772  TIP3      H1              7.6987459597      -32.2935745309       35.2472739532  TIP3      580             0.0000000000
     23992       772  TIP3      H2              7.5352027185      -30.7640455128       35.3288713691  TIP3      580             0.0000000000
     23993       773  TIP3      OH2             7.9759086734      -33.1786055480       33.4162979782  TIP3      581             0.0000000000
     23994       773  TIP3      H1              8.4941545966      -32.7081097649       32.7225293983  TIP3      581             0.0000000000
     23995       773  TIP3      H2              7.0806681272      -33.2834452862       33.0119482084  TIP3      581             0.0000000000
     23996       774  TIP3      OH2             9.5171529898      -27.7137831918       33.6832318803  TIP3      582             0.0000000000
     23997       774  TIP3      H1             10.2758195523      -27.8742166457       33.1111437045  TIP3      582             0.0000000000
     23998       774  TIP3      H2              9.1556676014      -26.8711694201       33.3597903981  TIP3      582             0.0000000000
     23999       775  TIP3      OH2            13.9203647343      -29.9644529857       38.6489332409  TIP3      583             0.0000000000
     24000       775  TIP3      H1             14.1404501058      -30.9061455234       38.5701924357  TIP3      583             0.0000000000
     24001       775  TIP3      H2             14.7907882956      -29.5367762360       38.6629500324  TIP3      583             0.0000000000
     24002       776  TIP3      OH2            15.2608229152      -27.1565540043       36.8305353062  TIP3      584             0.0000000000
     24003       776  TIP3      H1             15.0040311292      -26.4430651686       36.2048766969  TIP3      584             0.0000000000
     24004       776  TIP3      H2             16.2144900195      -27.1990031568       36.6113132652  TIP3      584             0.0000000000
     24005       777  TIP3      OH2             6.0446888295      -30.3404605513       37.8433833006  TIP3      585             0.0000000000
     24006       777  TIP3      H1              5.2659039093      -30.8945001905       37.6284427173  TIP3      585             0.0000000000
     24007       777  TIP3      H2              6.6860409792      -30.6746968967       37.1854096697  TIP3      585             0.0000000000
     24008       778  TIP3      OH2             8.6200397661      -35.5699027928       34.1073110673  TIP3      586             0.0000000000
     24009       778  TIP3      H1              8.5806013048      -34.6342485124       33.7936724630  TIP3      586             0.0000000000
     24010       778  TIP3      H2              8.0477668474      -35.9904152823       33.4495660855  TIP3      586             0.0000000000
     24011       779  TIP3      OH2            10.0241084381      -31.4002648908       37.4550189592  TIP3      587             0.0000000000
     24012       779  TIP3      H1              9.7452655930      -31.7031690007       38.3361241625  TIP3      587             0.0000000000
     24013       779  TIP3      H2              9.2502400696      -31.6335639345       36.9112771960  TIP3      587             0.0000000000
     24014       780  TIP3      OH2            12.7604978487      -32.2789809565       36.5393666688  TIP3      588             0.0000000000
     24015       780  TIP3      H1             11.7962685209      -32.2504464088       36.6709602474  TIP3      588             0.0000000000
     24016       780  TIP3      H2             13.0462012946      -32.9099263215       37.2310664162  TIP3      588             0.0000000000
     24017       781  TIP3      OH2            14.3294249003      -33.5671531354       38.4780105217  TIP3      589             0.0000000000
     24018       781  TIP3      H1             14.2662727015      -34.5555796830       38.4893226150  TIP3      589             0.0000000000
     24019       781  TIP3      H2             14.0636459930      -33.3468829914       39.3959260126  TIP3      589             0.0000000000
     24020       782  TIP3      OH2             4.1253906292      -32.4013863789       37.5462838816  TIP3      590             0.0000000000
     24021       782  TIP3      H1              4.3794298963      -33.1451999117       36.9683428465  TIP3      590             0.0000000000
     24022       782  TIP3      H2              4.0555010641      -32.8542231810       38.4103728213  TIP3      590             0.0000000000
     24023       783  TIP3      OH2             8.9692653361       36.6318877561       36.5587022452  TIP3      591             0.0000000000
     24024       783  TIP3      H1              9.6585387788       35.9652147466       36.6040742928  TIP3      591             0.0000000000
     24025       783  TIP3      H2              8.8690783426       36.8477048956       35.6074043084  TIP3      591             0.0000000000
     24026       784  TIP3      OH2             9.3583540800      -34.7010425164       38.5959169449  TIP3      592             0.0000000000
     24027       784  TIP3      H1              9.1898443668      -35.2542850714       37.8014961500  TIP3      592             0.0000000000
     24028       784  TIP3      H2              8.7474585715      -33.9590695531       38.5184447950  TIP3      592             0.0000000000
     24029       785  TIP3      OH2             1.1907352619      -17.8782959020       26.2371624909  TIP3      593             0.0000000000
     24030       785  TIP3      H1              0.4301399947      -18.3442886397       25.7943990161  TIP3      593             0.0000000000
     24031       785  TIP3      H2              1.4026032560      -18.5325993650       26.9350895276  TIP3      593             0.0000000000
     24032       786  TIP3      OH2             1.9816113478      -19.7537614108       28.1146694497  TIP3      594             0.0000000000
     24033       786  TIP3      H1              1.6139441600      -20.6258249708       28.3301075425  TIP3      594             0.0000000000
     24034       786  TIP3      H2              2.1911208364      -19.4222787004       29.0075347345  TIP3      594             0.0000000000
     24035       787  TIP3      OH2            19.5087630118      -18.9501946315       31.0671850363  TIP3      595             0.0000000000
     24036       787  TIP3      H1             19.5351807200      -18.7846170608       32.0255382783  TIP3      595             0.0000000000
     24037       787  TIP3      H2             20.2134080113      -18.3695097105       30.7620330272  TIP3      595             0.0000000000
     24038       788  TIP3      OH2            19.0816952613      -19.3536676530       34.0124633323  TIP3      596             0.0000000000
     24039       788  TIP3      H1             18.6106844856      -20.1254593493       33.6322100956  TIP3      596             0.0000000000
     24040       788  TIP3      H2             19.5785745283      -19.8003844912       34.7184298251  TIP3      596             0.0000000000
     24041       789  TIP3      OH2            17.5341582773      -23.6445326943       38.6752276435  TIP3      597             0.0000000000
     24042       789  TIP3      H1             16.6386125849      -23.6596490220       39.0643478038  TIP3      597             0.0000000000
     24043       789  TIP3      H2             17.9038277538      -22.8369249917       39.0951415149  TIP3      597             0.0000000000
     24044       790  TIP3      OH2            18.8161684626      -25.3205845654       24.1506737918  TIP3      598             0.0000000000
     24045       790  TIP3      H1             19.6904678255      -24.9342557746       24.2685444135  TIP3      598             0.0000000000
     24046       790  TIP3      H2             18.8734406048      -26.0606746310       24.7856307697  TIP3      598             0.0000000000
     24047       791  TIP3      OH2            19.2266769269      -27.2738808025       25.9962429660  TIP3      599             0.0000000000
     24048       791  TIP3      H1             18.4600291101      -27.7303025956       26.4011013579  TIP3      599             0.0000000000
     24049       791  TIP3      H2             19.8148972258      -27.0883536952       26.7534422822  TIP3      599             0.0000000000
     24050       792  TIP3      OH2            18.9618175876      -24.5306448062       30.9830024764  TIP3      600             0.0000000000
     24051       792  TIP3      H1             19.7808726946      -24.9032601217       30.6099411391  TIP3      600             0.0000000000
     24052       792  TIP3      H2             19.1030906603      -23.5764173598       30.8184342834  TIP3      600             0.0000000000
     24053       793  TIP3      OH2            17.5181975734      -21.6275596192       33.2562474189  TIP3      601             0.0000000000
     24054       793  TIP3      H1             16.8263175045      -21.2867644857       33.8460592207  TIP3      601             0.0000000000
     24055       793  TIP3      H2             16.9699700967      -22.0299592550       32.5492057163  TIP3      601             0.0000000000
     24056       794  TIP3      OH2            17.0669033198      -28.7660089743       26.5875615870  TIP3      602             0.0000000000
     24057       794  TIP3      H1             16.8574765815      -29.6956086472       26.4833886471  TIP3      602             0.0000000000
     24058       794  TIP3      H2             16.6798311063      -28.4879193140       27.4385657192  TIP3      602             0.0000000000
     24059       795  TIP3      OH2             2.0280606497      -26.6707149487       30.6183026736  TIP3      603             0.0000000000
     24060       795  TIP3      H1              2.2066893683      -26.7491487977       29.6562145696  TIP3      603             0.0000000000
     24061       795  TIP3      H2              2.9211325208      -26.8417060375       30.9782756284  TIP3      603             0.0000000000
     24062       796  TIP3      OH2            17.8816937787      -26.7841896606       36.2699667497  TIP3      604             0.0000000000
     24063       796  TIP3      H1             18.4936769100      -27.5431030188       36.3845974117  TIP3      604             0.0000000000
     24064       796  TIP3      H2             18.4835591205      -26.0126776604       36.2517661064  TIP3      604             0.0000000000
     24065       797  TIP3      OH2            19.3762165666      -28.8952517850       36.9052384126  TIP3      605             0.0000000000
     24066       797  TIP3      H1             18.5007406948      -29.3036999171       36.7403679062  TIP3      605             0.0000000000
     24067       797  TIP3      H2             19.9558765312      -29.6734680817       36.8314360463  TIP3      605             0.0000000000
     24068       798  TIP3      OH2            17.0526997990      -32.6861030694       20.0926572575  TIP3      606             0.0000000000
     24069       798  TIP3      H1             17.6650419712      -33.0662065442       20.7156660900  TIP3      606             0.0000000000
     24070       798  TIP3      H2             16.1704510922      -33.0880927839       20.2276918656  TIP3      606             0.0000000000
     24071       799  TIP3      OH2            16.7335664877      -31.1863648962       25.1548226853  TIP3      607             0.0000000000
     24072       799  TIP3      H1             16.9975791290      -32.1372106357       25.0908786370  TIP3      607             0.0000000000
     24073       799  TIP3      H2             17.4365609789      -30.7799302149       24.6178755774  TIP3      607             0.0000000000
     24074       800  TIP3      OH2            17.3039727750      -30.6265136223       30.4313804383  TIP3      608             0.0000000000
     24075       800  TIP3      H1             18.2790697741      -30.4006295799       30.4541273536  TIP3      608             0.0000000000
     24076       800  TIP3      H2             17.1426345678      -30.5034920689       31.3940062800  TIP3      608             0.0000000000
     24077       801  TIP3      OH2            17.3687662983      -29.8798156532       33.1807281569  TIP3      609             0.0000000000
     24078       801  TIP3      H1             16.5245988397      -29.5944556384       33.6011508822  TIP3      609             0.0000000000
     24079       801  TIP3      H2             17.8374485667      -29.0231898574       33.0427292195  TIP3      609             0.0000000000
     24080       802  TIP3      OH2             1.6381832112      -31.3597397402       36.7603933896  TIP3      610             0.0000000000
     24081       802  TIP3      H1              2.5740897159      -31.5669463106       36.9561276409  TIP3      610             0.0000000000
     24082       802  TIP3      H2              1.1975485116      -32.1862255936       37.0509459888  TIP3      610             0.0000000000
     24083       803  TIP3      OH2            19.7435650191      -35.8346238284       38.5816253843  TIP3      611             0.0000000000
     24084       803  TIP3      H1             19.9899955813      -36.5020437273       37.9316952921  TIP3      611             0.0000000000
     24085       803  TIP3      H2             19.7502374171      -35.0048151794       38.0748673516  TIP3      611             0.0000000000
     24086       804  TIP3      OH2            17.3377665459      -33.8581615750       25.1197294922  TIP3      612             0.0000000000
     24087       804  TIP3      H1             17.5542221500      -34.3697276336       25.9238584738  TIP3      612             0.0000000000
     24088       804  TIP3      H2             16.7265788182      -34.4917488014       24.6434971952  TIP3      612             0.0000000000
     24089       805  TIP3      OH2             2.7940109265      -33.0452765536       29.6213137776  TIP3      613             0.0000000000
     24090       805  TIP3      H1              3.2771909547      -33.8699433141       29.8663365065  TIP3      613             0.0000000000
     24091       805  TIP3      H2              3.3733439034      -32.3809132288       30.0135146509  TIP3      613             0.0000000000
     24092       806  TIP3      OH2             1.1297389381      -30.0803552048       30.6696326635  TIP3      614             0.0000000000
     24093       806  TIP3      H1              1.6917109222      -30.3268417274       29.9056332530  TIP3      614             0.0000000000
     24094       806  TIP3      H2              1.5909395380      -29.2721234596       30.9368132726  TIP3      614             0.0000000000
     24095       807  TIP3      OH2            19.1900751015      -33.7811713130       36.9354071895  TIP3      615             0.0000000000
     24096       807  TIP3      H1             18.2565767629      -33.4843009826       36.9040764209  TIP3      615             0.0000000000
     24097       807  TIP3      H2             19.2364199518      -34.3050608263       36.1197921306  TIP3      615             0.0000000000
     24098       808  TIP3      OH2             1.5188650456      -33.7813997149       24.8431232659  TIP3      616             0.0000000000
     24099       808  TIP3      H1              0.5761672005      -33.6353531654       24.6341718678  TIP3      616             0.0000000000
     24100       808  TIP3      H2              1.9173396769      -33.3973328121       24.0431977649  TIP3      616             0.0000000000
     24101       809  TIP3      OH2            16.2450032819      -18.8651989738       26.7087685622  TIP3      617             0.0000000000
     24102       809  TIP3      H1             16.9082984096      -19.1719031970       26.0709683159  TIP3      617             0.0000000000
     24103       809  TIP3      H2             16.7610199888      -18.3563091720       27.3443797139  TIP3      617             0.0000000000
     24104       810  TIP3      OH2             1.3925332944      -35.1604159598       32.9943840556  TIP3      618             0.0000000000
     24105       810  TIP3      H1              0.8343047625      -35.2769166429       33.7757559578  TIP3      618             0.0000000000
     24106       810  TIP3      H2              1.0248296777      -34.4254247894       32.4743246648  TIP3      618             0.0000000000
     24107       811  TIP3      OH2             3.6797198110      -21.9543534839       37.2128310900  TIP3      619             0.0000000000
     24108       811  TIP3      H1              2.8382387031      -21.7440702955       36.7766417688  TIP3      619             0.0000000000
     24109       811  TIP3      H2              3.4103278733      -22.0168255587       38.1353815464  TIP3      619             0.0000000000
     24110       812  TIP3      OH2             6.5828974676      -20.9614744473       33.4779420325  TIP3      620             0.0000000000
     24111       812  TIP3      H1              6.2419443088      -20.0985415098       33.2033166120  TIP3      620             0.0000000000
     24112       812  TIP3      H2              7.5074004847      -20.8703034015       33.1713938783  TIP3      620             0.0000000000
     24113       813  TIP3      OH2            10.8999915191      -19.5372726019       36.3871207739  TIP3      621             0.0000000000
     24114       813  TIP3      H1             11.0429483960      -19.8841734401       37.3011711366  TIP3      621             0.0000000000
     24115       813  TIP3      H2             11.8012670152      -19.2348066491       36.1488206958  TIP3      621             0.0000000000
     24116       814  TIP3      OH2            13.1927313509      -18.2672917729       35.6894652461  TIP3      622             0.0000000000
     24117       814  TIP3      H1             13.9226723747      -18.8588430007       35.4513955276  TIP3      622             0.0000000000
     24118       814  TIP3      H2             13.5693950320      -17.8351502314       36.4857504117  TIP3      622             0.0000000000
     24119       815  TIP3      OH2            18.2227169363      -35.6206573677       34.6873393014  TIP3      623             0.0000000000
     24120       815  TIP3      H1             17.3641203117      -35.3319806483       34.3379614671  TIP3      623             0.0000000000
     24121       815  TIP3      H2             18.3718600612      -36.4851612152       34.2471849266  TIP3      623             0.0000000000
     24122       816  TIP3      OH2             4.0082298973      -17.7226988632       33.4750547354  TIP3      624             0.0000000000
     24123       816  TIP3      H1              3.2753582620      -17.2273475456       33.0764352803  TIP3      624             0.0000000000
     24124       816  TIP3      H2              3.6896214333      -17.9190881824       34.3679134431  TIP3      624             0.0000000000
     24125       817  TIP3      OH2             6.4766714505      -18.1423492280       32.5473950749  TIP3      625             0.0000000000
     24126       817  TIP3      H1              5.5835490781      -18.0035053298       32.9432508741  TIP3      625             0.0000000000
     24127       817  TIP3      H2              6.4191029505      -17.5541336213       31.7707363642  TIP3      625             0.0000000000
     24128       818  TIP3      OH2            11.1835774747      -18.2321068203       31.7146462320  TIP3      626             0.0000000000
     24129       818  TIP3      H1             10.7194401846      -17.6766590553       31.0683731249  TIP3      626             0.0000000000
     24130       818  TIP3      H2             11.3181386592      -17.5977653409       32.4533811621  TIP3      626             0.0000000000
     24131       819  TIP3      OH2            13.4765240294      -19.4139739726       32.7343465838  TIP3      627             0.0000000000
     24132       819  TIP3      H1             12.6142834634      -19.1461620796       32.3774488656  TIP3      627             0.0000000000
     24133       819  TIP3      H2             13.9508955736      -18.5693089844       32.6434600692  TIP3      627             0.0000000000
     24134       820  TIP3      OH2            16.0588454345      -17.8440982265       32.9684349367  TIP3      628             0.0000000000
     24135       820  TIP3      H1             15.9896743876      -16.8854342202       32.7385586479  TIP3      628             0.0000000000
     24136       820  TIP3      H2             16.2723193926      -18.2173683321       32.0906233637  TIP3      628             0.0000000000
     24137       821  TIP3      OH2             3.4607504847      -19.0691575405       30.4177360586  TIP3      629             0.0000000000
     24138       821  TIP3      H1              3.3817715276      -19.5305696082       31.2797713615  TIP3      629             0.0000000000
     24139       821  TIP3      H2              4.2738200111      -19.4497872334       30.0286986029  TIP3      629             0.0000000000
     24140       822  TIP3      OH2             5.5322999201      -20.3575976597       29.0609078379  TIP3      630             0.0000000000
     24141       822  TIP3      H1              5.3677390917      -21.2925655529       29.2901849021  TIP3      630             0.0000000000
     24142       822  TIP3      H2              6.3905316158      -20.2103470426       29.5169106918  TIP3      630             0.0000000000
     24143       823  TIP3      OH2             8.1381706193      -19.8756795749       29.9590114231  TIP3      631             0.0000000000
     24144       823  TIP3      H1              8.3004974417      -20.7930345469       29.6714652124  TIP3      631             0.0000000000
     24145       823  TIP3      H2              8.1774662816      -19.9640470664       30.9218323102  TIP3      631             0.0000000000
     24146       824  TIP3      OH2            11.5240474431      -34.1580170164       29.0684124539  TIP3      632             0.0000000000
     24147       824  TIP3      H1             10.9107160944      -34.8588230286       29.3480898491  TIP3      632             0.0000000000
     24148       824  TIP3      H2             12.1559154639      -34.6855618215       28.5491713680  TIP3      632             0.0000000000
     24149       825  TIP3      OH2            16.7455493006      -36.1417103895       29.2028978443  TIP3      633             0.0000000000
     24150       825  TIP3      H1             17.3431453556      -35.5972715395       28.6518731817  TIP3      633             0.0000000000
     24151       825  TIP3      H2             15.8767954905      -35.8362965200       28.9418681978  TIP3      633             0.0000000000
     24152       826  TIP3      OH2            18.4538595633      -34.9242400912       27.4232771792  TIP3      634             0.0000000000
     24153       826  TIP3      H1             19.0748489677      -35.5147418701       26.9968186076  TIP3      634             0.0000000000
     24154       826  TIP3      H2             18.9221846681      -34.0784907375       27.5527642790  TIP3      634             0.0000000000
     24155       827  TIP3      OH2             3.9449353518      -35.5712952786       26.9224733835  TIP3      635             0.0000000000
     24156       827  TIP3      H1              3.1619683893      -35.8217118926       26.4200642007  TIP3      635             0.0000000000
     24157       827  TIP3      H2              4.4402412376      -36.4064006366       26.9779860515  TIP3      635             0.0000000000
     24158       828  TIP3      OH2             8.4971525074      -35.7199232175       26.7015308474  TIP3      636             0.0000000000
     24159       828  TIP3      H1              9.3628406565      -35.2823653193       26.6726736505  TIP3      636             0.0000000000
     24160       828  TIP3      H2              8.3968069128      -35.9082141993       27.6396003316  TIP3      636             0.0000000000
     24161       829  TIP3      OH2            13.9031579800      -35.2866621637       28.4844092237  TIP3      637             0.0000000000
     24162       829  TIP3      H1             14.0377705459      -35.3703206822       27.5303931487  TIP3      637             0.0000000000
     24163       829  TIP3      H2             13.8048415253      -36.2672578556       28.6232548641  TIP3      637             0.0000000000
     24164       830  TIP3      OH2            15.4106111094      -35.5872136740       24.1065522542  TIP3      638             0.0000000000
     24165       830  TIP3      H1             14.6727127545      -35.0427056684       23.7814955856  TIP3      638             0.0000000000
     24166       830  TIP3      H2             14.9945459295      -36.4577014657       24.1453758072  TIP3      638             0.0000000000
     24167       831  TIP3      OH2             9.5104062174      -33.6788105074       23.6011978822  TIP3      639             0.0000000000
     24168       831  TIP3      H1              9.8548792926      -34.2462647026       24.3088028988  TIP3      639             0.0000000000
     24169       831  TIP3      H2              9.6306057776      -32.8146296207       24.0509192863  TIP3      639             0.0000000000
     24170       832  TIP3      OH2            11.5439257781      -18.6271979325       21.9909327352  TIP3      640             0.0000000000
     24171       832  TIP3      H1             12.4293885762      -18.3058568029       21.8318191781  TIP3      640             0.0000000000
     24172       832  TIP3      H2             11.2466550820      -19.0742722859       21.1909971582  TIP3      640             0.0000000000
     24173       833  TIP3      OH2            18.2462800986      -19.0925023405       24.6750727841  TIP3      641             0.0000000000
     24174       833  TIP3      H1             17.9848273900      -19.8345990058       24.1032919048  TIP3      641             0.0000000000
     24175       833  TIP3      H2             18.1235191060      -18.3497522734       24.0706241628  TIP3      641             0.0000000000
     24176       834  TIP3      OH2             3.7612230420      -35.0757517371       36.2937996607  TIP3      642             0.0000000000
     24177       834  TIP3      H1              3.4400149652      -35.8246209739       36.8017711907  TIP3      642             0.0000000000
     24178       834  TIP3      H2              4.6713295017      -35.0668473298       36.6843276481  TIP3      642             0.0000000000
     24179       835  TIP3      OH2             5.6043831168      -35.4747504825       37.9136100941  TIP3      643             0.0000000000
     24180       835  TIP3      H1              6.5462370541      -35.6909782911       37.7755949715  TIP3      643             0.0000000000
     24181       835  TIP3      H2              5.4447070598      -36.3255980941       38.3686416394  TIP3      643             0.0000000000
     24182       836  TIP3      OH2            14.1893890161       36.9873774398       38.1066772729  TIP3      644             0.0000000000
     24183       836  TIP3      H1             14.2467939407       36.4039681985       38.8929754279  TIP3      644             0.0000000000
     24184       836  TIP3      H2             15.0685890879       36.7574912167       37.7760564872  TIP3      644             0.0000000000
     24185       837  TIP3      OH2            17.4639374046      -20.3426394676       36.8378654551  TIP3      645             0.0000000000
     24186       837  TIP3      H1             16.6706854623      -20.4816758488       36.2759641445  TIP3      645             0.0000000000
     24187       837  TIP3      H2             17.3610700902      -19.3881548901       37.0237293411  TIP3      645             0.0000000000
     24188       838  TIP3      OH2            31.8632025613      -26.4761012481       26.8803236365  TIP3      646             0.0000000000
     24189       838  TIP3      H1             31.9461169390      -25.5041975941       26.7415278693  TIP3      646             0.0000000000
     24190       838  TIP3      H2             31.2092703876      -26.6847763035       26.2144927636  TIP3      646             0.0000000000
     24191       839  TIP3      OH2            30.7573515424      -27.2012048122       30.2853955286  TIP3      647             0.0000000000
     24192       839  TIP3      H1             30.7512416470      -27.8512522889       31.0007600700  TIP3      647             0.0000000000
     24193       839  TIP3      H2             30.4428735213      -27.7132634865       29.5228435967  TIP3      647             0.0000000000
     24194       840  TIP3      OH2            23.1237840278      -27.5337123361       31.8433969732  TIP3      648             0.0000000000
     24195       840  TIP3      H1             23.2068477166      -28.2144014489       32.5447398520  TIP3      648             0.0000000000
     24196       840  TIP3      H2             23.8703157623      -26.9586278558       32.0641117463  TIP3      648             0.0000000000
     24197       841  TIP3      OH2            34.4885436725      -24.2707184203       28.5784502667  TIP3      649             0.0000000000
     24198       841  TIP3      H1             34.0575061876      -24.9838049274       29.0610130379  TIP3      649             0.0000000000
     24199       841  TIP3      H2             34.4751691684      -23.5561460038       29.2365386104  TIP3      649             0.0000000000
     24200       842  TIP3      OH2            24.0518829916      -23.0835493755       30.3522406110  TIP3      650             0.0000000000
     24201       842  TIP3      H1             23.7376115246      -23.9483955773       30.0282828797  TIP3      650             0.0000000000
     24202       842  TIP3      H2             25.0065119308      -23.2702118024       30.3974019938  TIP3      650             0.0000000000
     24203       843  TIP3      OH2            20.7122429541      -29.5376471041       25.8060749886  TIP3      651             0.0000000000
     24204       843  TIP3      H1             20.3073156046      -28.6405339365       25.7815609937  TIP3      651             0.0000000000
     24205       843  TIP3      H2             20.1126455278      -30.0313691817       25.2542493936  TIP3      651             0.0000000000
     24206       844  TIP3      OH2            21.3953089731      -27.2977576444       27.9415766526  TIP3      652             0.0000000000
     24207       844  TIP3      H1             21.6543560277      -28.1076586480       28.4238712360  TIP3      652             0.0000000000
     24208       844  TIP3      H2             22.1251736735      -27.1788232488       27.3228555758  TIP3      652             0.0000000000
     24209       845  TIP3      OH2            31.5836368766      -19.1029911077       28.7958112105  TIP3      653             0.0000000000
     24210       845  TIP3      H1             32.2264652070      -19.8017516625       28.5204068309  TIP3      653             0.0000000000
     24211       845  TIP3      H2             31.3562041324      -19.4249231718       29.6731739697  TIP3      653             0.0000000000
     24212       846  TIP3      OH2            29.1495176387      -24.8023550449       30.7535083134  TIP3      654             0.0000000000
     24213       846  TIP3      H1             29.4850251861      -25.4349427930       30.0994986374  TIP3      654             0.0000000000
     24214       846  TIP3      H2             29.9528681750      -24.6477663974       31.2779909007  TIP3      654             0.0000000000
     24215       847  TIP3      OH2            32.3215463138      -30.3295453288       31.0732420726  TIP3      655             0.0000000000
     24216       847  TIP3      H1             32.4767093656      -31.2977014520       31.0594235314  TIP3      655             0.0000000000
     24217       847  TIP3      H2             32.2203891621      -30.1798091353       30.1130878408  TIP3      655             0.0000000000
     24218       848  TIP3      OH2            25.4587468876      -32.2514258223       28.2657623530  TIP3      656             0.0000000000
     24219       848  TIP3      H1             25.5262879704      -31.3807352214       27.8329707088  TIP3      656             0.0000000000
     24220       848  TIP3      H2             24.9915877665      -32.7999417278       27.6178207115  TIP3      656             0.0000000000
     24221       849  TIP3      OH2            33.1795269692      -32.1170605785       26.7132900890  TIP3      657             0.0000000000
     24222       849  TIP3      H1             33.8463885614      -32.4593162116       27.3535450068  TIP3      657             0.0000000000
     24223       849  TIP3      H2             33.7394199789      -31.6280727387       26.1059857412  TIP3      657             0.0000000000
     24224       850  TIP3      OH2            22.0523511173      -29.8428012622       29.0284464129  TIP3      658             0.0000000000
     24225       850  TIP3      H1             22.7241696578      -30.3847302753       29.4872004376  TIP3      658             0.0000000000
     24226       850  TIP3      H2             22.1586388163      -30.1520842634       28.1199232007  TIP3      658             0.0000000000
     24227       851  TIP3      OH2            27.2285971981      -28.2774095930       28.3204020219  TIP3      659             0.0000000000
     24228       851  TIP3      H1             27.8721028615      -28.8656287207       28.7531704227  TIP3      659             0.0000000000
     24229       851  TIP3      H2             26.6786579602      -28.9366862012       27.8554988226  TIP3      659             0.0000000000
     24230       852  TIP3      OH2            24.3421207574      -33.3001476977       32.3210157650  TIP3      660             0.0000000000
     24231       852  TIP3      H1             24.0239705569      -32.7661891411       31.5666178604  TIP3      660             0.0000000000
     24232       852  TIP3      H2             23.6365483352      -33.1194315442       32.9921814515  TIP3      660             0.0000000000
     24233       853  TIP3      OH2            31.6191200910      -23.8799528664       25.8818430405  TIP3      661             0.0000000000
     24234       853  TIP3      H1             31.3515100293      -24.1539931911       24.9949890436  TIP3      661             0.0000000000
     24235       853  TIP3      H2             31.3124480917      -22.9492748000       25.9514225091  TIP3      661             0.0000000000
     24236       854  TIP3      OH2            26.8509508915      -25.7051369849       32.5767307558  TIP3      662             0.0000000000
     24237       854  TIP3      H1             26.1417266210      -25.0616572879       32.7843985908  TIP3      662             0.0000000000
     24238       854  TIP3      H2             27.5559475481      -25.1065920782       32.2866550356  TIP3      662             0.0000000000
     24239       855  TIP3      OH2            34.6895050277      -32.8927849028       28.7585801293  TIP3      663             0.0000000000
     24240       855  TIP3      H1             34.6965214182      -33.6794261006       29.3037340323  TIP3      663             0.0000000000
     24241       855  TIP3      H2             35.4480317196      -32.4068488928       29.1599443785  TIP3      663             0.0000000000
     24242       856  TIP3      OH2            23.8908724160      -31.4469931772       30.3377497742  TIP3      664             0.0000000000
     24243       856  TIP3      H1             24.5388050050      -30.7993916184       30.6872086003  TIP3      664             0.0000000000
     24244       856  TIP3      H2             24.4195909261      -31.8996362515       29.6363534854  TIP3      664             0.0000000000
     24245       857  TIP3      OH2            25.2959901828      -23.7057254145       33.3966269603  TIP3      665             0.0000000000
     24246       857  TIP3      H1             25.2509545133      -22.7938935779       33.0529136019  TIP3      665             0.0000000000
     24247       857  TIP3      H2             24.4115323208      -23.7819174102       33.8365102119  TIP3      665             0.0000000000
     24248       858  TIP3      OH2            21.4048587331      -24.0395987868       24.1390759560  TIP3      666             0.0000000000
     24249       858  TIP3      H1             21.0505642621      -23.7514376330       23.2911495939  TIP3      666             0.0000000000
     24250       858  TIP3      H2             21.4222212073      -23.2406651278       24.7033600642  TIP3      666             0.0000000000
     24251       859  TIP3      OH2            34.7903179268      -22.4889246106       31.0302236699  TIP3      667             0.0000000000
     24252       859  TIP3      H1             33.8359977498      -22.2828050804       31.0794756597  TIP3      667             0.0000000000
     24253       859  TIP3      H2             35.1748431215      -21.6361050921       30.7464684890  TIP3      667             0.0000000000
     24254       860  TIP3      OH2            35.0910959870      -33.9934407503       32.0894572408  TIP3      668             0.0000000000
     24255       860  TIP3      H1             34.4158887226      -33.3128104418       32.1859628420  TIP3      668             0.0000000000
     24256       860  TIP3      H2             35.8807302206      -33.5422099251       31.7715467616  TIP3      668             0.0000000000
     24257       861  TIP3      OH2            28.2609640319      -36.0101474182       29.6393009808  TIP3      669             0.0000000000
     24258       861  TIP3      H1             28.2269770112      -36.9685498804       29.7857358990  TIP3      669             0.0000000000
     24259       861  TIP3      H2             27.4683189680      -35.7323081676       30.1224234558  TIP3      669             0.0000000000
     24260       862  TIP3      OH2            33.1764465759      -20.7081475780       27.5606543996  TIP3      670             0.0000000000
     24261       862  TIP3      H1             33.6754566578      -21.3789745534       27.0542558158  TIP3      670             0.0000000000
     24262       862  TIP3      H2             33.6060970631      -19.9015422152       27.1885678098  TIP3      670             0.0000000000
     24263       863  TIP3      OH2            34.4121742082      -22.6913299520       26.0586478197  TIP3      671             0.0000000000
     24264       863  TIP3      H1             34.2147308407      -23.4274151128       25.4622173752  TIP3      671             0.0000000000
     24265       863  TIP3      H2             34.5113743229      -23.2182685361       26.8771481937  TIP3      671             0.0000000000
     24266       864  TIP3      OH2            35.8210099884      -23.9823234965       34.6565531009  TIP3      672             0.0000000000
     24267       864  TIP3      H1             36.0953116103      -24.6728309083       34.0245653103  TIP3      672             0.0000000000
     24268       864  TIP3      H2             36.2324101563      -23.2248475599       34.2038051639  TIP3      672             0.0000000000
     24269       865  TIP3      OH2            33.9146873708      -27.0353571715       25.1895456369  TIP3      673             0.0000000000
     24270       865  TIP3      H1             33.2735127239      -26.7440185182       25.8534481993  TIP3      673             0.0000000000
     24271       865  TIP3      H2             34.4689110848      -27.6414349787       25.7157441096  TIP3      673             0.0000000000
     24272       866  TIP3      OH2            33.9570262742      -28.8380074534       34.3235394226  TIP3      674             0.0000000000
     24273       866  TIP3      H1             33.9205250981      -28.0385925846       34.8729349004  TIP3      674             0.0000000000
     24274       866  TIP3      H2             33.3169740218      -28.5627176408       33.6396316817  TIP3      674             0.0000000000
     24275       867  TIP3      OH2            25.6211065827      -26.3540162844       27.1422283928  TIP3      675             0.0000000000
     24276       867  TIP3      H1             25.3012312685      -26.7499024246       26.3001356093  TIP3      675             0.0000000000
     24277       867  TIP3      H2             26.2392311028      -27.0399748279       27.4763065759  TIP3      675             0.0000000000
     24278       868  TIP3      OH2            26.9545919604      -22.9589044538       29.8163276856  TIP3      676             0.0000000000
     24279       868  TIP3      H1             26.9395521940      -23.5043692656       29.0210109217  TIP3      676             0.0000000000
     24280       868  TIP3      H2             27.7307408365      -23.3213991733       30.2836556489  TIP3      676             0.0000000000
     24281       869  TIP3      OH2            25.9622744015      -27.6078159149       30.8000328037  TIP3      677             0.0000000000
     24282       869  TIP3      H1             26.5189736932      -27.4984211634       30.0050598246  TIP3      677             0.0000000000
     24283       869  TIP3      H2             26.3409305738      -26.9418735567       31.4158281756  TIP3      677             0.0000000000
     24284       870  TIP3      OH2            32.3046008735      -22.0264225358       31.4962190522  TIP3      678             0.0000000000
     24285       870  TIP3      H1             32.0947387943      -21.4007153942       32.1914501727  TIP3      678             0.0000000000
     24286       870  TIP3      H2             32.1157299707      -22.8949310213       31.9293984472  TIP3      678             0.0000000000
     24287       871  TIP3      OH2            26.9108743102      -23.1790858617       35.4991206946  TIP3      679             0.0000000000
     24288       871  TIP3      H1             26.5060235346      -22.4326893283       35.9854349464  TIP3      679             0.0000000000
     24289       871  TIP3      H2             26.2359477665      -23.3737265751       34.8025925560  TIP3      679             0.0000000000
     24290       872  TIP3      OH2            23.8492717144      -27.0172102838       34.6620312694  TIP3      680             0.0000000000
     24291       872  TIP3      H1             23.8986213491      -26.3488247160       35.3719114697  TIP3      680             0.0000000000
     24292       872  TIP3      H2             22.9103025299      -26.9235794653       34.4411051465  TIP3      680             0.0000000000
     24293       873  TIP3      OH2            30.6080988831      -21.0812719252       26.3468555866  TIP3      681             0.0000000000
     24294       873  TIP3      H1             31.0457819205      -20.7976040411       27.1650695652  TIP3      681             0.0000000000
     24295       873  TIP3      H2             30.0356866083      -20.3330134913       26.1566114081  TIP3      681             0.0000000000
     24296       874  TIP3      OH2            25.1521858184      -21.1386933908       36.2349622471  TIP3      682             0.0000000000
     24297       874  TIP3      H1             25.0920468892      -21.2474580322       35.2724290533  TIP3      682             0.0000000000
     24298       874  TIP3      H2             24.2261939965      -21.2719004327       36.5168459332  TIP3      682             0.0000000000
     24299       875  TIP3      OH2            24.6271068564      -27.3327926079       24.7375850060  TIP3      683             0.0000000000
     24300       875  TIP3      H1             24.3304089960      -26.5343276368       24.2458311412  TIP3      683             0.0000000000
     24301       875  TIP3      H2             23.9138901092      -27.9449247676       24.5403901413  TIP3      683             0.0000000000
     24302       876  TIP3      OH2            20.6880046890      -24.9044041741       33.6474458788  TIP3      684             0.0000000000
     24303       876  TIP3      H1             20.2405022510      -24.9831913499       32.7852931065  TIP3      684             0.0000000000
     24304       876  TIP3      H2             20.7604959137      -25.8521785816       33.8669320456  TIP3      684             0.0000000000
     24305       877  TIP3      OH2            20.4498315551      -22.1642493068       30.4298362364  TIP3      685             0.0000000000
     24306       877  TIP3      H1             21.4076061987      -22.2840143235       30.4128315089  TIP3      685             0.0000000000
     24307       877  TIP3      H2             20.3657194758      -21.3508015314       30.9421222521  TIP3      685             0.0000000000
     24308       878  TIP3      OH2            29.6460011578      -21.9205252974       34.9863979024  TIP3      686             0.0000000000
     24309       878  TIP3      H1             29.7057226791      -21.0827409202       35.5041668401  TIP3      686             0.0000000000
     24310       878  TIP3      H2             28.7722686100      -22.2785159499       35.2350007189  TIP3      686             0.0000000000
     24311       879  TIP3      OH2            30.1012297015      -18.1799242915       24.7890169695  TIP3      687             0.0000000000
     24312       879  TIP3      H1             30.0083043219      -18.2081591694       23.8278062030  TIP3      687             0.0000000000
     24313       879  TIP3      H2             30.1244202444      -17.2146706724       24.9458768057  TIP3      687             0.0000000000
     24314       880  TIP3      OH2            23.7086391548      -19.2881173742       26.6226946942  TIP3      688             0.0000000000
     24315       880  TIP3      H1             23.8709750065      -19.7192086011       27.4913644323  TIP3      688             0.0000000000
     24316       880  TIP3      H2             22.8770968328      -19.7190151960       26.3791956751  TIP3      688             0.0000000000
     24317       881  TIP3      OH2            32.7961534970      -19.0146202044       24.5674560036  TIP3      689             0.0000000000
     24318       881  TIP3      H1             31.8358066542      -18.9536538320       24.7011687884  TIP3      689             0.0000000000
     24319       881  TIP3      H2             33.0451321509      -19.7630582290       25.1262697184  TIP3      689             0.0000000000
     24320       882  TIP3      OH2            35.3639663527      -29.8190837877       36.6234486640  TIP3      690             0.0000000000
     24321       882  TIP3      H1             35.3130574204      -29.4693663171       35.7316807547  TIP3      690             0.0000000000
     24322       882  TIP3      H2             35.8707331224      -30.6606989491       36.4504497698  TIP3      690             0.0000000000
     24323       883  TIP3      OH2            22.9721034551      -23.5862302227       34.5961177208  TIP3      691             0.0000000000
     24324       883  TIP3      H1             23.1959150401      -23.9551736962       35.4773644474  TIP3      691             0.0000000000
     24325       883  TIP3      H2             22.1039754744      -23.9851438555       34.3818660561  TIP3      691             0.0000000000
     24326       884  TIP3      OH2            25.6166850855      -35.1593368812       30.5821741074  TIP3      692             0.0000000000
     24327       884  TIP3      H1             24.7334745290      -35.1823472046       30.1744258973  TIP3      692             0.0000000000
     24328       884  TIP3      H2             25.5419054708      -34.2909329582       31.0168132661  TIP3      692             0.0000000000
     24329       885  TIP3      OH2            30.2714249828      -35.4256211284       33.9600048239  TIP3      693             0.0000000000
     24330       885  TIP3      H1             30.6957458374      -35.8390719862       34.7103764632  TIP3      693             0.0000000000
     24331       885  TIP3      H2             29.3194326503      -35.5392787425       34.1145755413  TIP3      693             0.0000000000
     24332       886  TIP3      OH2            33.5231438549      -31.6798551965       34.7629370738  TIP3      694             0.0000000000
     24333       886  TIP3      H1             33.0159338397      -31.7870276136       35.6004169477  TIP3      694             0.0000000000
     24334       886  TIP3      H2             33.4471308591      -30.7261380052       34.5934181533  TIP3      694             0.0000000000
     24335       887  TIP3      OH2            25.7531217050      -30.1428865737       31.7945691957  TIP3      695             0.0000000000
     24336       887  TIP3      H1             25.0165560147      -30.1570528965       32.4326642924  TIP3      695             0.0000000000
     24337       887  TIP3      H2             25.7086080719      -29.2310833176       31.4291197508  TIP3      695             0.0000000000
     24338       888  TIP3      OH2            25.7070439674      -30.0464051587       26.6774198974  TIP3      696             0.0000000000
     24339       888  TIP3      H1             24.7605087555      -30.2493029936       26.5372168862  TIP3      696             0.0000000000
     24340       888  TIP3      H2             26.0935933191      -30.2906013216       25.8268668453  TIP3      696             0.0000000000
     24341       889  TIP3      OH2            31.1827381941      -29.5429454903       25.3437723839  TIP3      697             0.0000000000
     24342       889  TIP3      H1             30.8475842934      -28.6859389356       25.0572435866  TIP3      697             0.0000000000
     24343       889  TIP3      H2             31.9569951306      -29.6773550694       24.7681937726  TIP3      697             0.0000000000
     24344       890  TIP3      OH2            30.3088818293      -29.3072374386       36.8739200707  TIP3      698             0.0000000000
     24345       890  TIP3      H1             29.7825525079      -30.0854308129       37.1766151683  TIP3      698             0.0000000000
     24346       890  TIP3      H2             31.1467827440      -29.4356817141       37.3519849632  TIP3      698             0.0000000000
     24347       891  TIP3      OH2            32.2387497856      -30.0147988961       28.2746365796  TIP3      699             0.0000000000
     24348       891  TIP3      H1             32.0209630051      -29.4708014988       27.5023846647  TIP3      699             0.0000000000
     24349       891  TIP3      H2             32.3734029356      -30.8815190576       27.8324158182  TIP3      699             0.0000000000
     24350       892  TIP3      OH2            23.3682094423      -29.8773576362       33.4842799631  TIP3      700             0.0000000000
     24351       892  TIP3      H1             23.4495084579      -29.4764954396       34.3673067825  TIP3      700             0.0000000000
     24352       892  TIP3      H2             22.9280968526      -30.7142879641       33.6868364205  TIP3      700             0.0000000000
     24353       893  TIP3      OH2            20.0437685564      -32.7442847639       27.4403568685  TIP3      701             0.0000000000
     24354       893  TIP3      H1             20.7100307265      -32.7947210665       28.1669846117  TIP3      701             0.0000000000
     24355       893  TIP3      H2             20.5078457978      -33.1472940027       26.7112895487  TIP3      701             0.0000000000
     24356       894  TIP3      OH2            31.4600926309      -28.4496469482       32.8342985773  TIP3      702             0.0000000000
     24357       894  TIP3      H1             31.8464777137      -29.1327620832       32.2425385171  TIP3      702             0.0000000000
     24358       894  TIP3      H2             30.9989083468      -28.9790416043       33.5096498848  TIP3      702             0.0000000000
     24359       895  TIP3      OH2            28.2401270444      -32.5003299360       27.6393871255  TIP3      703             0.0000000000
     24360       895  TIP3      H1             27.3271020835      -32.4625025423       28.0066052572  TIP3      703             0.0000000000
     24361       895  TIP3      H2             28.7719655550      -32.6160726927       28.4535737329  TIP3      703             0.0000000000
     24362       896  TIP3      OH2            23.0921296151      -30.8950330260       26.4997231198  TIP3      704             0.0000000000
     24363       896  TIP3      H1             22.1756731769      -30.7558353831       26.1772839800  TIP3      704             0.0000000000
     24364       896  TIP3      H2             23.3531848755      -31.7576123117       26.1662358267  TIP3      704             0.0000000000
     24365       897  TIP3      OH2            26.7094720030      -30.8033979753       24.1825399371  TIP3      705             0.0000000000
     24366       897  TIP3      H1             27.6687986129      -30.6632782873       24.3752854021  TIP3      705             0.0000000000
     24367       897  TIP3      H2             26.4761601628      -30.1223528409       23.5231514445  TIP3      705             0.0000000000
     24368       898  TIP3      OH2            32.6139352258      -33.2486912017       30.9197431741  TIP3      706             0.0000000000
     24369       898  TIP3      H1             31.9415876563      -33.1671330885       31.6215830618  TIP3      706             0.0000000000
     24370       898  TIP3      H2             32.1285294752      -33.5003300326       30.1193714829  TIP3      706             0.0000000000
     24371       899  TIP3      OH2            25.4361402207      -29.7501220667       21.7699426320  TIP3      707             0.0000000000
     24372       899  TIP3      H1             24.8038939537      -30.0406282210       21.0808230316  TIP3      707             0.0000000000
     24373       899  TIP3      H2             26.2187140579      -29.5134220584       21.3125057852  TIP3      707             0.0000000000
     24374       900  TIP3      OH2            35.7785727555      -17.5405065658       37.2759185279  TIP3      708             0.0000000000
     24375       900  TIP3      H1             36.1170443305      -17.2179028714       36.4242957873  TIP3      708             0.0000000000
     24376       900  TIP3      H2             36.5400712707      -17.2823301608       37.8225184699  TIP3      708             0.0000000000
     24377       901  TIP3      OH2            23.5664420951      -25.1316082724       36.8132238853  TIP3      709             0.0000000000
     24378       901  TIP3      H1             24.2668218560      -24.8790016628       37.4361286593  TIP3      709             0.0000000000
     24379       901  TIP3      H2             22.7732420205      -25.0316901127       37.3833780275  TIP3      709             0.0000000000
     24380       902  TIP3      OH2            29.5613143054      -29.7161798342       29.5424875118  TIP3      710             0.0000000000
     24381       902  TIP3      H1             30.1643017990      -30.2724992417       29.0364143991  TIP3      710             0.0000000000
     24382       902  TIP3      H2             29.4062089164      -30.2467848443       30.3377686763  TIP3      710             0.0000000000
     24383       903  TIP3      OH2            24.5208958436      -33.5400717927       25.9425947850  TIP3      711             0.0000000000
     24384       903  TIP3      H1             24.2376895627      -34.4661308315       26.0615967524  TIP3      711             0.0000000000
     24385       903  TIP3      H2             25.3585402338      -33.6808856967       25.5361060438  TIP3      711             0.0000000000
     24386       904  TIP3      OH2            28.2038616041      -31.3398241186       31.9683332108  TIP3      712             0.0000000000
     24387       904  TIP3      H1             27.3589849140      -30.8559389207       32.0760259347  TIP3      712             0.0000000000
     24388       904  TIP3      H2             28.7474936225      -31.0267877145       32.7129943396  TIP3      712             0.0000000000
     24389       905  TIP3      OH2            28.6929121137      -25.0495296349       23.6652361398  TIP3      713             0.0000000000
     24390       905  TIP3      H1             28.0145859770      -25.6639954630       23.3430119858  TIP3      713             0.0000000000
     24391       905  TIP3      H2             28.5779585045      -25.0510346549       24.6240919033  TIP3      713             0.0000000000
     24392       906  TIP3      OH2            35.6649988395      -25.9665366172       32.4718623835  TIP3      714             0.0000000000
     24393       906  TIP3      H1             36.3949560380      -25.7822509171       31.8296543311  TIP3      714             0.0000000000
     24394       906  TIP3      H2             34.9042806627      -25.9268480560       31.8675033002  TIP3      714             0.0000000000
     24395       907  TIP3      OH2            30.2852270437      -24.9055262779       34.9095571916  TIP3      715             0.0000000000
     24396       907  TIP3      H1             29.9178456357      -25.3198746811       35.6986304039  TIP3      715             0.0000000000
     24397       907  TIP3      H2             30.0473866370      -23.9767805102       35.0148309620  TIP3      715             0.0000000000
     24398       908  TIP3      OH2            33.3332634716      -30.4202343712       23.4610735808  TIP3      716             0.0000000000
     24399       908  TIP3      H1             34.2013754569      -30.5522050678       23.8777931535  TIP3      716             0.0000000000
     24400       908  TIP3      H2             33.4425235503      -29.6051105666       22.9586953356  TIP3      716             0.0000000000
     24401       909  TIP3      OH2            23.8903634311      -25.7725768301       29.4718870540  TIP3      717             0.0000000000
     24402       909  TIP3      H1             24.5779077436      -25.8485720940       28.7802579853  TIP3      717             0.0000000000
     24403       909  TIP3      H2             23.9508389635      -26.6320161035       29.9274489698  TIP3      717             0.0000000000
     24404       910  TIP3      OH2            20.8795213223      -27.3647392927       34.7423066154  TIP3      718             0.0000000000
     24405       910  TIP3      H1             21.0573462373      -27.8080811494       35.5921570376  TIP3      718             0.0000000000
     24406       910  TIP3      H2             20.2621382936      -27.9779158126       34.3015019457  TIP3      718             0.0000000000
     24407       911  TIP3      OH2            27.8910632909      -27.8119440342       36.9187718905  TIP3      719             0.0000000000
     24408       911  TIP3      H1             27.5775567533      -28.1039112022       36.0518182195  TIP3      719             0.0000000000
     24409       911  TIP3      H2             28.8193521671      -28.1192855074       36.9141291471  TIP3      719             0.0000000000
     24410       912  TIP3      OH2            32.5703280118      -22.4849782905       34.8612570387  TIP3      720             0.0000000000
     24411       912  TIP3      H1             31.6513080873      -22.2984560937       34.6222100188  TIP3      720             0.0000000000
     24412       912  TIP3      H2             32.5458890799      -22.1873867016       35.7900283762  TIP3      720             0.0000000000
     24413       913  TIP3      OH2            33.6911804753      -26.6654547612       30.7582683760  TIP3      721             0.0000000000
     24414       913  TIP3      H1             32.7542278859      -26.8849685131       30.6288387406  TIP3      721             0.0000000000
     24415       913  TIP3      H2             34.1662891237      -27.4087323900       30.3449656406  TIP3      721             0.0000000000
     24416       914  TIP3      OH2            26.2594586784      -22.3176669049       26.8226596033  TIP3      722             0.0000000000
     24417       914  TIP3      H1             26.7647779926      -21.5046852496       26.6584993015  TIP3      722             0.0000000000
     24418       914  TIP3      H2             25.3665768675      -22.0687120616       26.5525139139  TIP3      722             0.0000000000
     24419       915  TIP3      OH2            27.6931930411      -24.6368741183       26.4171937957  TIP3      723             0.0000000000
     24420       915  TIP3      H1             27.3688217365      -23.7186791101       26.4765780598  TIP3      723             0.0000000000
     24421       915  TIP3      H2             26.9528261141      -25.1314573638       26.8197380833  TIP3      723             0.0000000000
     24422       916  TIP3      OH2            28.1335290305      -20.4681658934       32.7804708702  TIP3      724             0.0000000000
     24423       916  TIP3      H1             28.5851840683      -19.6558686659       32.4992176468  TIP3      724             0.0000000000
     24424       916  TIP3      H2             28.7392668176      -20.8019093101       33.4657668270  TIP3      724             0.0000000000
     24425       917  TIP3      OH2            26.3728329515      -19.6902841004       25.9290697283  TIP3      725             0.0000000000
     24426       917  TIP3      H1             25.4155464749      -19.5374298508       26.0722732450  TIP3      725             0.0000000000
     24427       917  TIP3      H2             26.7197463377      -18.8416549911       26.2633799127  TIP3      725             0.0000000000
     24428       918  TIP3      OH2            31.6837154524      -24.4578361306       32.4135140625  TIP3      726             0.0000000000
     24429       918  TIP3      H1             31.3249184916      -24.6586121642       33.3043796293  TIP3      726             0.0000000000
     24430       918  TIP3      H2             32.3026356658      -25.1825609787       32.2379261236  TIP3      726             0.0000000000
     24431       919  TIP3      OH2            34.4665764254      -19.9024878893       34.8860832894  TIP3      727             0.0000000000
     24432       919  TIP3      H1             33.7543399173      -20.3770323934       34.4072948788  TIP3      727             0.0000000000
     24433       919  TIP3      H2             34.6775467475      -19.1866957398       34.2472984466  TIP3      727             0.0000000000
     24434       920  TIP3      OH2            22.5199160648      -32.6431892612       34.3113390426  TIP3      728             0.0000000000
     24435       920  TIP3      H1             21.6150704370      -32.2911942446       34.2648637750  TIP3      728             0.0000000000
     24436       920  TIP3      H2             22.3955033087      -33.5139374321       34.7239449543  TIP3      728             0.0000000000
     24437       921  TIP3      OH2            22.1463962870      -20.8418111685       32.7119272223  TIP3      729             0.0000000000
     24438       921  TIP3      H1             22.4376611751      -21.7663919288       32.7192728831  TIP3      729             0.0000000000
     24439       921  TIP3      H2             22.4067092155      -20.5550995858       33.5957008409  TIP3      729             0.0000000000
     24440       922  TIP3      OH2            23.4818727515      -25.5387770135       22.9464466173  TIP3      730             0.0000000000
     24441       922  TIP3      H1             22.7214261634      -25.1831372940       23.4527144000  TIP3      730             0.0000000000
     24442       922  TIP3      H2             23.9462281664      -24.7544590366       22.6524082740  TIP3      730             0.0000000000
     24443       923  TIP3      OH2            31.2423134930      -32.8649539678       33.2445457703  TIP3      731             0.0000000000
     24444       923  TIP3      H1             31.9949343091      -32.8079914782       33.8510003891  TIP3      731             0.0000000000
     24445       923  TIP3      H2             30.8880930445      -33.7560542115       33.4158164408  TIP3      731             0.0000000000
     24446       924  TIP3      OH2            32.0238054214      -33.2138749112       24.3493066434  TIP3      732             0.0000000000
     24447       924  TIP3      H1             32.2534469756      -32.7992210286       23.5027790851  TIP3      732             0.0000000000
     24448       924  TIP3      H2             32.6311219492      -32.8135426813       24.9771591993  TIP3      732             0.0000000000
     24449       925  TIP3      OH2            29.1662001995      -31.5474048706       25.1426482173  TIP3      733             0.0000000000
     24450       925  TIP3      H1             29.9926105348      -31.0004544621       25.1403625904  TIP3      733             0.0000000000
     24451       925  TIP3      H2             29.0149941022      -31.6377890514       26.1080110330  TIP3      733             0.0000000000
     24452       926  TIP3      OH2            29.8130504972      -30.5081890639       34.3377964650  TIP3      734             0.0000000000
     24453       926  TIP3      H1             29.8955975008      -29.9451816091       35.1321474390  TIP3      734             0.0000000000
     24454       926  TIP3      H2             30.4630347950      -31.2185115424       34.4327159604  TIP3      734             0.0000000000
     24455       927  TIP3      OH2            30.0279322074      -34.4383131840       26.0129239045  TIP3      735             0.0000000000
     24456       927  TIP3      H1             29.8088131056      -33.8018641379       26.7150926827  TIP3      735             0.0000000000
     24457       927  TIP3      H2             30.7839384275      -33.9569720769       25.5796016829  TIP3      735             0.0000000000
     24458       928  TIP3      OH2            35.8758986730      -32.8163057898       35.0450117871  TIP3      736             0.0000000000
     24459       928  TIP3      H1             35.0144052890      -32.3345829213       35.0199958160  TIP3      736             0.0000000000
     24460       928  TIP3      H2             36.2497791851      -32.6312959058       34.1803206218  TIP3      736             0.0000000000
     24461       929  TIP3      OH2            34.5787083257      -28.8542451870       29.2610795728  TIP3      737             0.0000000000
     24462       929  TIP3      H1             33.7685164456      -29.2893172708       28.9288753384  TIP3      737             0.0000000000
     24463       929  TIP3      H2             35.0107815664      -29.5739425613       29.7275659470  TIP3      737             0.0000000000
     24464       930  TIP3      OH2            35.7017483621      -19.5715299314       30.8709882060  TIP3      738             0.0000000000
     24465       930  TIP3      H1             35.5422592533      -18.9022589989       30.1807228519  TIP3      738             0.0000000000
     24466       930  TIP3      H2             36.6449714044      -19.4803589550       31.0319996050  TIP3      738             0.0000000000
     24467       931  TIP3      OH2            22.8592246657      -35.2994826812       29.6892642905  TIP3      739             0.0000000000
     24468       931  TIP3      H1             22.9596279448      -35.3883268067       28.7167397230  TIP3      739             0.0000000000
     24469       931  TIP3      H2             22.7686340063      -36.2036914398       29.9557045344  TIP3      739             0.0000000000
     24470       932  TIP3      OH2            22.0732475735      -21.5559129693       25.7729842256  TIP3      740             0.0000000000
     24471       932  TIP3      H1             21.2303020096      -21.0846722592       25.8024502025  TIP3      740             0.0000000000
     24472       932  TIP3      H2             22.5900752149      -21.0529606975       25.1396039042  TIP3      740             0.0000000000
     24473       933  TIP3      OH2            21.3013939160      -18.8959290210       37.1034907720  TIP3      741             0.0000000000
     24474       933  TIP3      H1             21.8973296234      -19.1007276320       37.8525119921  TIP3      741             0.0000000000
     24475       933  TIP3      H2             20.8852969193      -19.7581225195       36.9298881267  TIP3      741             0.0000000000
     24476       934  TIP3      OH2            25.9928631536      -20.0025372017       38.7204396493  TIP3      742             0.0000000000
     24477       934  TIP3      H1             26.7527905348      -20.5129014842       39.0132934444  TIP3      742             0.0000000000
     24478       934  TIP3      H2             25.9483399510      -20.2569413449       37.7737167051  TIP3      742             0.0000000000
     24479       935  TIP3      OH2            32.5271954347      -21.6030754520       37.4496989482  TIP3      743             0.0000000000
     24480       935  TIP3      H1             32.1889657954      -22.4809544591       37.7226963674  TIP3      743             0.0000000000
     24481       935  TIP3      H2             33.2945413833      -21.4966350293       38.0422227653  TIP3      743             0.0000000000
     24482       936  TIP3      OH2            21.2111326289      -25.1436279543       38.0842727897  TIP3      744             0.0000000000
     24483       936  TIP3      H1             21.3884991326      -26.0472776131       37.7641631659  TIP3      744             0.0000000000
     24484       936  TIP3      H2             20.4775255968      -24.8680419246       37.5094967584  TIP3      744             0.0000000000
     24485       937  TIP3      OH2            25.6105851537      -24.7905223501       20.1781778898  TIP3      745             0.0000000000
     24486       937  TIP3      H1             25.7344315778      -25.5602305534       20.7387151828  TIP3      745             0.0000000000
     24487       937  TIP3      H2             26.3000526473      -24.8514055203       19.5105028627  TIP3      745             0.0000000000
     24488       938  TIP3      OH2            27.9340222081      -25.1517101823       37.4616310238  TIP3      746             0.0000000000
     24489       938  TIP3      H1             27.5893169947      -24.8357864240       36.6063807551  TIP3      746             0.0000000000
     24490       938  TIP3      H2             28.0150561642      -26.1296134602       37.3517756957  TIP3      746             0.0000000000
     24491       939  TIP3      OH2            33.6022899895      -25.3114885221       34.8747171790  TIP3      747             0.0000000000
     24492       939  TIP3      H1             34.3884362969      -24.7081506736       34.8125304513  TIP3      747             0.0000000000
     24493       939  TIP3      H2             32.9226975115      -24.6288646949       34.9206363574  TIP3      747             0.0000000000
     24494       940  TIP3      OH2            22.1281278332      -27.9015485478       37.4812513252  TIP3      748             0.0000000000
     24495       940  TIP3      H1             22.5403076135      -28.7661291551       37.3889546234  TIP3      748             0.0000000000
     24496       940  TIP3      H2             21.8977223987      -27.8871958187       38.4300394685  TIP3      748             0.0000000000
     24497       941  TIP3      OH2            26.6954788860      -26.7760091075       22.4764017257  TIP3      749             0.0000000000
     24498       941  TIP3      H1             26.2925443673      -27.2694924777       23.2066400078  TIP3      749             0.0000000000
     24499       941  TIP3      H2             27.1146472199      -27.4268829515       21.9173286757  TIP3      749             0.0000000000
     24500       942  TIP3      OH2            26.0309878963      -28.9577581567       34.8342507410  TIP3      750             0.0000000000
     24501       942  TIP3      H1             25.4338507696      -28.2366576684       35.0950357858  TIP3      750             0.0000000000
     24502       942  TIP3      H2             26.4218582097      -28.5883971924       34.0238866826  TIP3      750             0.0000000000
     24503       943  TIP3      OH2            31.1007618227      -26.3764961625       38.2524504730  TIP3      751             0.0000000000
     24504       943  TIP3      H1             32.0451149544      -26.4033779516       38.0553821104  TIP3      751             0.0000000000
     24505       943  TIP3      H2             30.9516724358      -27.1791249867       38.7717523885  TIP3      751             0.0000000000
     24506       944  TIP3      OH2            26.4286003571      -31.5708886183       35.8832907562  TIP3      752             0.0000000000
     24507       944  TIP3      H1             26.5546031502      -32.2934916254       35.2475863871  TIP3      752             0.0000000000
     24508       944  TIP3      H2             26.3913450109      -30.7637407028       35.3286684468  TIP3      752             0.0000000000
     24509       945  TIP3      OH2            26.8323574412      -33.1796723739       33.4105505223  TIP3      753             0.0000000000
     24510       945  TIP3      H1             27.3548831510      -32.7047173349       32.7218426287  TIP3      753             0.0000000000
     24511       945  TIP3      H2             25.9383406055      -33.2834312598       33.0043794455  TIP3      753             0.0000000000
     24512       946  TIP3      OH2            28.3758390656      -27.7156311645       33.6837951477  TIP3      754             0.0000000000
     24513       946  TIP3      H1             29.1329137029      -27.8761481163       33.1107440372  TIP3      754             0.0000000000
     24514       946  TIP3      H2             28.0199830800      -26.8747136084       33.3551866811  TIP3      754             0.0000000000
     24515       947  TIP3      OH2            32.8239600537      -29.9376277403       38.6535602117  TIP3      755             0.0000000000
     24516       947  TIP3      H1             33.0403131670      -30.8816266048       38.5773407317  TIP3      755             0.0000000000
     24517       947  TIP3      H2             33.7005202780      -29.5301671768       38.6140637666  TIP3      755             0.0000000000
     24518       948  TIP3      OH2            34.1491463781      -27.1131453445       36.8337691692  TIP3      756             0.0000000000
     24519       948  TIP3      H1             33.8410809506      -26.4387704589       36.1869406333  TIP3      756             0.0000000000
     24520       948  TIP3      H2             35.0699943431      -27.2351840816       36.5989983738  TIP3      756             0.0000000000
     24521       949  TIP3      OH2            24.9063833612      -30.3380690027       37.8380126953  TIP3      757             0.0000000000
     24522       949  TIP3      H1             24.1240812166      -30.8922539970       37.6309056942  TIP3      757             0.0000000000
     24523       949  TIP3      H2             25.5448083625      -30.6773739485       37.1814335436  TIP3      757             0.0000000000
     24524       950  TIP3      OH2            27.4668186353      -35.5721640899       34.1096068939  TIP3      758             0.0000000000
     24525       950  TIP3      H1             27.4364779168      -34.6356415660       33.7949020187  TIP3      758             0.0000000000
     24526       950  TIP3      H2             26.9051137222      -35.9891087134       33.4438920501  TIP3      758             0.0000000000
     24527       951  TIP3      OH2            28.8802430941      -31.4002845801       37.4556573867  TIP3      759             0.0000000000
     24528       951  TIP3      H1             28.6000043989      -31.7023511949       38.3364368749  TIP3      759             0.0000000000
     24529       951  TIP3      H2             28.1053373592      -31.6316723421       36.9109051088  TIP3      759             0.0000000000
     24530       952  TIP3      OH2            31.5843615951      -32.2769441319       36.5449258684  TIP3      760             0.0000000000
     24531       952  TIP3      H1             30.6241603444      -32.2569149955       36.6864603602  TIP3      760             0.0000000000
     24532       952  TIP3      H2             31.9148439695      -32.9032215546       37.2209316141  TIP3      760             0.0000000000
     24533       953  TIP3      OH2            33.2753250802      -33.5917755127       38.5117124116  TIP3      761             0.0000000000
     24534       953  TIP3      H1             33.0855092506      -34.5624284362       38.4805772864  TIP3      761             0.0000000000
     24535       953  TIP3      H2             32.8998347402      -33.3329200935       39.3821186222  TIP3      761             0.0000000000
     24536       954  TIP3      OH2            22.9713488053      -32.3979419256       37.5556666252  TIP3      762             0.0000000000
     24537       954  TIP3      H1             23.2355977052      -33.1374562162       36.9765445283  TIP3      762             0.0000000000
     24538       954  TIP3      H2             22.9074701664      -32.8476015792       38.4259822864  TIP3      762             0.0000000000
     24539       955  TIP3      OH2            27.8256036874       36.6312935915       36.5589147582  TIP3      763             0.0000000000
     24540       955  TIP3      H1             28.5159233698       35.9659102168       36.6036430515  TIP3      763             0.0000000000
     24541       955  TIP3      H2             27.7250372995       36.8486477407       35.6080158075  TIP3      763             0.0000000000
     24542       956  TIP3      OH2            28.2102679520      -34.6993868320       38.5977822243  TIP3      764             0.0000000000
     24543       956  TIP3      H1             28.0492274248      -35.2535469308       37.8019537109  TIP3      764             0.0000000000
     24544       956  TIP3      H2             27.5996003955      -33.9573090091       38.5206969222  TIP3      764             0.0000000000
     24545       957  TIP3      OH2            20.0089844473      -17.8652979054       26.2676506791  TIP3      765             0.0000000000
     24546       957  TIP3      H1             19.2892652678      -18.3550104507       25.8078661310  TIP3      765             0.0000000000
     24547       957  TIP3      H2             20.2809522992      -18.5183525937       26.9433112140  TIP3      765             0.0000000000
     24548       958  TIP3      OH2            20.8206033021      -19.7518833547       28.1266485909  TIP3      766             0.0000000000
     24549       958  TIP3      H1             20.4791138350      -20.6312678173       28.3394009785  TIP3      766             0.0000000000
     24550       958  TIP3      H2             21.0635564772      -19.4194225318       29.0094337144  TIP3      766             0.0000000000
     24551       959  TIP3      OH2            36.2979206782      -21.6835159688       33.3074594133  TIP3      767             0.0000000000
     24552       959  TIP3      H1             35.6360801673      -21.2619156020       33.8729309743  TIP3      767             0.0000000000
     24553       959  TIP3      H2             35.7709443781      -22.0562600508       32.5763032262  TIP3      767             0.0000000000
     24554       960  TIP3      OH2            35.3862152617      -28.6735175307       26.6291642342  TIP3      768             0.0000000000
     24555       960  TIP3      H1             35.6240056185      -29.6022141806       26.6590378048  TIP3      768             0.0000000000
     24556       960  TIP3      H2             35.4853128376      -28.4276620733       27.5691684222  TIP3      768             0.0000000000
     24557       961  TIP3      OH2            20.8836764569      -26.6704383208       30.6233970346  TIP3      769             0.0000000000
     24558       961  TIP3      H1             21.0639165523      -26.7530212543       29.6641839139  TIP3      769             0.0000000000
     24559       961  TIP3      H2             21.7766345502      -26.8410901621       30.9812553969  TIP3      769             0.0000000000
     24560       962  TIP3      OH2            35.5357495342      -31.2441570183       24.8987861621  TIP3      770             0.0000000000
     24561       962  TIP3      H1             35.8305910680      -32.0881160072       25.2622680864  TIP3      770             0.0000000000
     24562       962  TIP3      H2             36.3548288399      -30.8472368371       24.5891090843  TIP3      770             0.0000000000
     24563       963  TIP3      OH2           -37.0561572012      -31.4399758628       30.4274892124  TIP3      771             0.0000000000
     24564       963  TIP3      H1            -36.1604406915      -31.0925054863       30.3361456518  TIP3      771             0.0000000000
     24565       963  TIP3      H2            -37.2491966263      -30.8286370573       31.1586425415  TIP3      771             0.0000000000
     24566       964  TIP3      OH2            36.2618272716      -29.8553351105       33.4830212058  TIP3      772             0.0000000000
     24567       964  TIP3      H1             35.3328281317      -29.5780729557       33.5952068995  TIP3      772             0.0000000000
     24568       964  TIP3      H2             36.6325232285      -29.1429328164       32.9301019767  TIP3      772             0.0000000000
     24569       965  TIP3      OH2            20.4932469983      -31.3620660112       36.7612081071  TIP3      773             0.0000000000
     24570       965  TIP3      H1             21.4299612334      -31.5671306269       36.9569171944  TIP3      773             0.0000000000
     24571       965  TIP3      H2             20.0522982547      -32.1892138553       37.0537717537  TIP3      773             0.0000000000
     24572       966  TIP3      OH2            35.2503996588      -34.3418322540       25.6598910145  TIP3      774             0.0000000000
     24573       966  TIP3      H1             36.1884582954      -34.3500766099       25.9237725468  TIP3      774             0.0000000000
     24574       966  TIP3      H2             35.3854216886      -34.6015028382       24.7433525510  TIP3      774             0.0000000000
     24575       967  TIP3      OH2            21.6822656193      -33.0394655872       29.5743148732  TIP3      775             0.0000000000
     24576       967  TIP3      H1             22.1207640624      -33.8666784625       29.8927856995  TIP3      775             0.0000000000
     24577       967  TIP3      H2             22.2215711736      -32.3798031467       30.0332379310  TIP3      775             0.0000000000
     24578       968  TIP3      OH2            19.9566172068      -30.0676508784       30.6406214010  TIP3      776             0.0000000000
     24579       968  TIP3      H1             20.5651199172      -30.3256091594       29.9164833953  TIP3      776             0.0000000000
     24580       968  TIP3      H2             20.4438057825      -29.2815940887       30.9441822345  TIP3      776             0.0000000000
     24581       969  TIP3      OH2            34.8991836703      -19.0541030898       26.7921793124  TIP3      777             0.0000000000
     24582       969  TIP3      H1             35.5647623318      -19.3734655380       26.1531348933  TIP3      777             0.0000000000
     24583       969  TIP3      H2             35.4364756504      -18.4554493501       27.3389601774  TIP3      777             0.0000000000
     24584       970  TIP3      OH2            20.3004288110      -35.1098464023       33.0254012113  TIP3      778             0.0000000000
     24585       970  TIP3      H1             19.6409010122      -35.3179284334       33.7117235533  TIP3      778             0.0000000000
     24586       970  TIP3      H2             19.8228776504      -34.4721762208       32.4684656672  TIP3      778             0.0000000000
     24587       971  TIP3      OH2            22.5365499183      -21.9442851798       37.2083784757  TIP3      779             0.0000000000
     24588       971  TIP3      H1             21.6917633997      -21.7421357756       36.7762716523  TIP3      779             0.0000000000
     24589       971  TIP3      H2             22.2637362910      -22.0234515872       38.1285076634  TIP3      779             0.0000000000
     24590       972  TIP3      OH2            25.4366454056      -20.9622535377       33.4789330603  TIP3      780             0.0000000000
     24591       972  TIP3      H1             25.0983308928      -20.0985749613       33.2023428944  TIP3      780             0.0000000000
     24592       972  TIP3      H2             26.3631068771      -20.8701668335       33.1710389068  TIP3      780             0.0000000000
     24593       973  TIP3      OH2            29.7573491149      -19.5375648690       36.3881685835  TIP3      781             0.0000000000
     24594       973  TIP3      H1             29.8978377167      -19.8841807446       37.3024391690  TIP3      781             0.0000000000
     24595       973  TIP3      H2             30.6586434348      -19.2358002232       36.1491516563  TIP3      781             0.0000000000
     24596       974  TIP3      OH2            32.0694198629      -18.2707326876       35.6960723253  TIP3      782             0.0000000000
     24597       974  TIP3      H1             32.8063833363      -18.8504309396       35.4549204794  TIP3      782             0.0000000000
     24598       974  TIP3      H2             32.4501899302      -17.8250222470       36.4819362360  TIP3      782             0.0000000000
     24599       975  TIP3      OH2            22.8636370415      -17.7221340035       33.4763024890  TIP3      783             0.0000000000
     24600       975  TIP3      H1             22.1319399047      -17.2256406701       33.0760596719  TIP3      783             0.0000000000
     24601       975  TIP3      H2             22.5445483107      -17.9173295580       34.3691520273  TIP3      783             0.0000000000
     24602       976  TIP3      OH2            25.3321443967      -18.1426925348       32.5486076427  TIP3      784             0.0000000000
     24603       976  TIP3      H1             24.4391832925      -18.0003075192       32.9421550049  TIP3      784             0.0000000000
     24604       976  TIP3      H2             25.2723524380      -17.5537875403       31.7735398440  TIP3      784             0.0000000000
     24605       977  TIP3      OH2            30.0084589413      -18.2422247574       31.7199754284  TIP3      785             0.0000000000
     24606       977  TIP3      H1             29.5690142484      -17.6758796666       31.0647111539  TIP3      785             0.0000000000
     24607       977  TIP3      H2             30.1712482413      -17.6029333184       32.4478633173  TIP3      785             0.0000000000
     24608       978  TIP3      OH2            32.3309324036      -19.4156750618       32.7371408193  TIP3      786             0.0000000000
     24609       978  TIP3      H1             31.4674040591      -19.1531676058       32.3802082537  TIP3      786             0.0000000000
     24610       978  TIP3      H2             32.7826695068      -18.5567390173       32.6606732448  TIP3      786             0.0000000000
     24611       979  TIP3      OH2            34.7806735432      -17.8506894066       32.9597422120  TIP3      787             0.0000000000
     24612       979  TIP3      H1             34.7728576052      -16.9016398254       32.7388886741  TIP3      787             0.0000000000
     24613       979  TIP3      H2             35.1187797233      -18.2188232184       32.1221402012  TIP3      787             0.0000000000
     24614       980  TIP3      OH2            22.3147383438      -19.0722954184       30.4141175578  TIP3      788             0.0000000000
     24615       980  TIP3      H1             22.2403744708      -19.5300501288       31.2790589352  TIP3      788             0.0000000000
     24616       980  TIP3      H2             23.1308932964      -19.4452306642       30.0254145247  TIP3      788             0.0000000000
     24617       981  TIP3      OH2            24.3988834621      -20.3660972207       29.0590801288  TIP3      789             0.0000000000
     24618       981  TIP3      H1             24.2273427499      -21.2950758396       29.3032840356  TIP3      789             0.0000000000
     24619       981  TIP3      H2             25.2506640347      -20.2083107696       29.5225870375  TIP3      789             0.0000000000
     24620       982  TIP3      OH2            26.9686010383      -19.8726761955       29.9458565711  TIP3      790             0.0000000000
     24621       982  TIP3      H1             27.1542281983      -20.7912578550       29.6759732971  TIP3      790             0.0000000000
     24622       982  TIP3      H2             27.0416676080      -19.9333375006       30.9091859333  TIP3      790             0.0000000000
     24623       983  TIP3      OH2            30.3350705442      -34.1656475835       29.0603813884  TIP3      791             0.0000000000
     24624       983  TIP3      H1             29.7533445594      -34.8820550786       29.3508479899  TIP3      791             0.0000000000
     24625       983  TIP3      H2             31.0184826506      -34.6634375740       28.5638485505  TIP3      791             0.0000000000
     24626       984  TIP3      OH2            35.5953622635      -36.1340323371       29.2202120209  TIP3      792             0.0000000000
     24627       984  TIP3      H1             36.1879975405      -35.5891484712       28.7112508792  TIP3      792             0.0000000000
     24628       984  TIP3      H2             34.7253746477      -35.8160448093       28.9765830604  TIP3      792             0.0000000000
     24629       985  TIP3      OH2            22.7993452848      -35.5720727001       26.9180029035  TIP3      793             0.0000000000
     24630       985  TIP3      H1             22.0150270428      -35.8399851262       26.4259158380  TIP3      793             0.0000000000
     24631       985  TIP3      H2             23.2980930502      -36.4063261972       26.9658206792  TIP3      793             0.0000000000
     24632       986  TIP3      OH2            27.3426403343      -35.6535190735       26.6873551812  TIP3      794             0.0000000000
     24633       986  TIP3      H1             28.2465226235      -35.2918745012       26.7020537344  TIP3      794             0.0000000000
     24634       986  TIP3      H2             27.2556898769      -35.9057648550       27.6214483390  TIP3      794             0.0000000000
     24635       987  TIP3      OH2            32.7152193786      -35.3107230251       28.4939066568  TIP3      795             0.0000000000
     24636       987  TIP3      H1             32.9048420489      -35.3331556871       27.5531538423  TIP3      795             0.0000000000
     24637       987  TIP3      H2             32.6470797231      -36.2934644439       28.6048400928  TIP3      795             0.0000000000
     24638       988  TIP3      OH2            21.4927536140      -19.8805651136       23.6315242549  TIP3      796             0.0000000000
     24639       988  TIP3      H1             20.7667217682      -19.9122063112       22.9971494496  TIP3      796             0.0000000000
     24640       988  TIP3      H2             21.5066975610      -18.9580482885       23.9202038798  TIP3      796             0.0000000000
     24641       989  TIP3      OH2            28.5987032522      -33.7254154539       23.5525513533  TIP3      797             0.0000000000
     24642       989  TIP3      H1             28.8896146557      -34.3041742231       24.2827999036  TIP3      797             0.0000000000
     24643       989  TIP3      H2             28.8323409230      -32.8640312229       23.9626444887  TIP3      797             0.0000000000
     24644       990  TIP3      OH2            22.6182648057      -35.0889141889       36.2860601850  TIP3      798             0.0000000000
     24645       990  TIP3      H1             22.2913619645      -35.8310952789       36.8056995906  TIP3      798             0.0000000000
     24646       990  TIP3      H2             23.5248042230      -35.0660533240       36.6856872107  TIP3      798             0.0000000000
     24647       991  TIP3      OH2            24.4523170142      -35.4812847906       37.9134692181  TIP3      799             0.0000000000
     24648       991  TIP3      H1             25.3956414271      -35.6932038608       37.7817972158  TIP3      799             0.0000000000
     24649       991  TIP3      H2             24.2861208981      -36.3245142469       38.3806394686  TIP3      799             0.0000000000
     24650       992  TIP3      OH2            33.1457651827       36.9863900289       38.1486323969  TIP3      800             0.0000000000
     24651       992  TIP3      H1             33.1014852496       36.3674170667       38.8956268499  TIP3      800             0.0000000000
     24652       992  TIP3      H2             33.9731375480       36.7435337125       37.7315661671  TIP3      800             0.0000000000
     24653       993  TIP3      OH2            36.1182227164      -20.4544061778       36.9549576588  TIP3      801             0.0000000000
     24654       993  TIP3      H1             35.4638479168      -20.5161594480       36.2290477905  TIP3      801             0.0000000000
     24655       993  TIP3      H2             36.1465863924      -19.4699220839       37.0180585067  TIP3      801             0.0000000000
     24656       994  TIP3      OH2           -24.6475321764       -7.6038914960       26.7739308880  TIP3      802             0.0000000000
     24657       994  TIP3      H1            -24.6501387074       -6.6217426765       26.7733058248  TIP3      802             0.0000000000
     24658       994  TIP3      H2            -25.4086370305       -7.8159390860       26.2422375870  TIP3      802             0.0000000000
     24659       995  TIP3      OH2           -25.7995358073       -8.3485879245       30.2705185630  TIP3      803             0.0000000000
     24660       995  TIP3      H1            -25.8124521190       -8.9927383349       30.9929080352  TIP3      803             0.0000000000
     24661       995  TIP3      H2            -26.1488033126       -8.8543025908       29.5202595066  TIP3      803             0.0000000000
     24662       996  TIP3      OH2           -33.3976976906       -8.6896590444       31.8125089850  TIP3      804             0.0000000000
     24663       996  TIP3      H1            -33.3378131592       -9.3560957614       32.5307247704  TIP3      804             0.0000000000
     24664       996  TIP3      H2            -32.6937200191       -8.0831071653       32.0791691942  TIP3      804             0.0000000000
     24665       997  TIP3      OH2           -22.1083120426       -5.4012930970       28.5709517057  TIP3      805             0.0000000000
     24666       997  TIP3      H1            -22.5192083028       -6.1189871725       29.0637060907  TIP3      805             0.0000000000
     24667       997  TIP3      H2            -22.0877819852       -4.6911831106       29.2396588808  TIP3      805             0.0000000000
     24668       998  TIP3      OH2           -32.5234147918       -4.2505064372       30.3755213804  TIP3      806             0.0000000000
     24669       998  TIP3      H1            -32.8405072879       -5.0982686524       30.0163716412  TIP3      806             0.0000000000
     24670       998  TIP3      H2            -31.5639765351       -4.4172326617       30.3919013967  TIP3      806             0.0000000000
     24671       999  TIP3      OH2           -35.5998814766      -10.6595636875       25.4162496621  TIP3      807             0.0000000000
     24672       999  TIP3      H1            -36.0746370630       -9.8741630352       25.7845199891  TIP3      807             0.0000000000
     24673       999  TIP3      H2            -36.3913389626      -11.1855634083       25.3940323129  TIP3      807             0.0000000000
     24674      1000  TIP3      OH2           -35.1957419529       -8.5028211094       27.9213480226  TIP3      808             0.0000000000
     24675      1000  TIP3      H1            -34.9097848459       -9.2618764282       28.4484761285  TIP3      808             0.0000000000
     24676      1000  TIP3      H2            -34.4546064523       -8.3397372641       27.3242357504  TIP3      808             0.0000000000
     24677      1001  TIP3      OH2           -24.9869146492       -0.2447982075       28.8111605919  TIP3      809             0.0000000000
     24678      1001  TIP3      H1            -24.3437137305       -0.9395525084       28.5254486449  TIP3      809             0.0000000000
     24679      1001  TIP3      H2            -25.2014002343       -0.5707346515       29.6845111698  TIP3      809             0.0000000000
     24680      1002  TIP3      OH2           -27.4229968208       -5.9455927303       30.7497539071  TIP3      810             0.0000000000
     24681      1002  TIP3      H1            -27.0852457198       -6.5748719028       30.0918966147  TIP3      810             0.0000000000
     24682      1002  TIP3      H2            -26.6189657678       -5.7932252872       31.2764471824  TIP3      810             0.0000000000
     24683      1003  TIP3      OH2           -18.8181624534      -14.2935250515       31.4899867426  TIP3      811             0.0000000000
     24684      1003  TIP3      H1            -18.6534019914      -13.7006300154       32.2539382692  TIP3      811             0.0000000000
     24685      1003  TIP3      H2            -18.2598511219      -13.8642071612       30.8260989640  TIP3      811             0.0000000000
     24686      1004  TIP3      OH2           -24.2563801166      -11.4805301479       31.0694662557  TIP3      812             0.0000000000
     24687      1004  TIP3      H1            -24.0921597154      -12.4405991330       31.0708723424  TIP3      812             0.0000000000
     24688      1004  TIP3      H2            -24.3587907314      -11.3365106230       30.1088684595  TIP3      812             0.0000000000
     24689      1005  TIP3      OH2           -31.1443937740      -13.3910230533       28.2998729354  TIP3      813             0.0000000000
     24690      1005  TIP3      H1            -31.0288195008      -12.5600024256       27.8018543201  TIP3      813             0.0000000000
     24691      1005  TIP3      H2            -31.5156406720      -13.9758991292       27.6001176934  TIP3      813             0.0000000000
     24692      1006  TIP3      OH2           -23.4024192132      -13.3037754570       26.6647187769  TIP3      814             0.0000000000
     24693      1006  TIP3      H1            -22.7441059390      -13.6204639671       27.3268740012  TIP3      814             0.0000000000
     24694      1006  TIP3      H2            -22.8442914591      -12.7437503380       26.1054824841  TIP3      814             0.0000000000
     24695      1007  TIP3      OH2           -34.5412094620      -11.0595503730       28.9757655404  TIP3      815             0.0000000000
     24696      1007  TIP3      H1            -33.8197736010      -11.5377810831       29.4357513050  TIP3      815             0.0000000000
     24697      1007  TIP3      H2            -34.3771361654      -11.3344787417       28.0667576476  TIP3      815             0.0000000000
     24698      1008  TIP3      OH2           -29.3457454661       -9.4275676638       28.3358202937  TIP3      816             0.0000000000
     24699      1008  TIP3      H1            -28.6898084312      -10.0113763531       28.7503593677  TIP3      816             0.0000000000
     24700      1008  TIP3      H2            -29.8774938397      -10.0869352200       27.8434075415  TIP3      816             0.0000000000
     24701      1009  TIP3      OH2           -18.3881855038      -12.8853842957       33.7648818172  TIP3      817             0.0000000000
     24702      1009  TIP3      H1            -18.9939966000      -12.1204046713       33.6590545067  TIP3      817             0.0000000000
     24703      1009  TIP3      H2            -18.3451510947      -12.9698728362       34.7244230148  TIP3      817             0.0000000000
     24704      1010  TIP3      OH2           -32.2000791037      -14.4932841095       32.3273724769  TIP3      818             0.0000000000
     24705      1010  TIP3      H1            -32.5053800255      -13.9261700020       31.5890430117  TIP3      818             0.0000000000
     24706      1010  TIP3      H2            -32.8856483501      -14.2702133064       33.0070085082  TIP3      818             0.0000000000
     24707      1011  TIP3      OH2           -24.9468904362       -5.0120117284       25.8727040428  TIP3      819             0.0000000000
     24708      1011  TIP3      H1            -25.2448984323       -5.2500309587       24.9948576680  TIP3      819             0.0000000000
     24709      1011  TIP3      H2            -25.2413924900       -4.0758857179       25.9632624001  TIP3      819             0.0000000000
     24710      1012  TIP3      OH2           -29.6970412195       -6.8487382594       32.5775914244  TIP3      820             0.0000000000
     24711      1012  TIP3      H1            -30.4187429566       -6.2131048150       32.7842367567  TIP3      820             0.0000000000
     24712      1012  TIP3      H2            -29.0026989940       -6.2440197224       32.2826803053  TIP3      820             0.0000000000
     24713      1013  TIP3      OH2           -21.6035245422      -13.9643061364       28.6538174696  TIP3      821             0.0000000000
     24714      1013  TIP3      H1            -21.8137756714      -14.7359139137       29.1880191824  TIP3      821             0.0000000000
     24715      1013  TIP3      H2            -20.9245195647      -13.5262326602       29.1931263503  TIP3      821             0.0000000000
     24716      1014  TIP3      OH2           -32.6873593610      -12.6493755120       30.3566039107  TIP3      822             0.0000000000
     24717      1014  TIP3      H1            -32.0657664329      -11.9565154590       30.6860376521  TIP3      822             0.0000000000
     24718      1014  TIP3      H2            -32.1406094619      -13.0418957040       29.6235706477  TIP3      822             0.0000000000
     24719      1015  TIP3      OH2           -31.2819339738       -4.8658383633       33.3833208441  TIP3      823             0.0000000000
     24720      1015  TIP3      H1            -31.3224772456       -3.9444599600       33.0531694643  TIP3      823             0.0000000000
     24721      1015  TIP3      H2            -32.1635484618       -4.9375900863       33.8238837629  TIP3      823             0.0000000000
     24722      1016  TIP3      OH2           -35.2053238726       -5.1842994503       24.1404211105  TIP3      824             0.0000000000
     24723      1016  TIP3      H1            -35.4633677603       -4.8825328255       23.2586120104  TIP3      824             0.0000000000
     24724      1016  TIP3      H2            -35.1315813762       -4.3820873547       24.6815788213  TIP3      824             0.0000000000
     24725      1017  TIP3      OH2           -21.5820737991       -3.5639585717       30.9406367893  TIP3      825             0.0000000000
     24726      1017  TIP3      H1            -22.5491436908       -3.4540771260       31.0624430942  TIP3      825             0.0000000000
     24727      1017  TIP3      H2            -21.3110648391       -2.6467103306       30.7445440823  TIP3      825             0.0000000000
     24728      1018  TIP3      OH2           -21.2608594885      -15.2817633498       32.3310695947  TIP3      826             0.0000000000
     24729      1018  TIP3      H1            -21.9868136640      -14.6487175477       32.2493519896  TIP3      826             0.0000000000
     24730      1018  TIP3      H2            -20.5507008435      -14.8591496773       31.8067375290  TIP3      826             0.0000000000
     24731      1019  TIP3      OH2           -28.2766659365      -17.1681511861       29.8038108342  TIP3      827             0.0000000000
     24732      1019  TIP3      H1            -28.4111232330      -18.1285219718       29.7127267082  TIP3      827             0.0000000000
     24733      1019  TIP3      H2            -29.1655512018      -16.8643442697       30.0818758825  TIP3      827             0.0000000000
     24734      1020  TIP3      OH2           -23.3242330935       -1.7826204098       27.5327634513  TIP3      828             0.0000000000
     24735      1020  TIP3      H1            -22.8912541891       -2.4976988089       27.0236822815  TIP3      828             0.0000000000
     24736      1020  TIP3      H2            -22.9068831228       -0.9881714505       27.1399860268  TIP3      828             0.0000000000
     24737      1021  TIP3      OH2           -22.0838057154       -3.8376370592       26.0420821462  TIP3      829             0.0000000000
     24738      1021  TIP3      H1            -22.3910671828       -4.5400710521       25.4499348617  TIP3      829             0.0000000000
     24739      1021  TIP3      H2            -22.0762238892       -4.3322746176       26.8838728869  TIP3      829             0.0000000000
     24740      1022  TIP3      OH2           -20.4900568362       -5.2618495944       34.5419595179  TIP3      830             0.0000000000
     24741      1022  TIP3      H1            -20.3464900567       -5.9114120658       33.8183539995  TIP3      830             0.0000000000
     24742      1022  TIP3      H2            -20.2828358295       -4.4188023411       34.1045649471  TIP3      830             0.0000000000
     24743      1023  TIP3      OH2           -18.6237493334       -8.9546862309       32.5795883147  TIP3      831             0.0000000000
     24744      1023  TIP3      H1            -19.2711107418       -8.2240400799       32.6287371596  TIP3      831             0.0000000000
     24745      1023  TIP3      H2            -18.1096400884       -8.7123658542       31.7894105445  TIP3      831             0.0000000000
     24746      1024  TIP3      OH2           -22.5827771903       -8.1648222063       25.2049423569  TIP3      832             0.0000000000
     24747      1024  TIP3      H1            -23.2720547453       -7.9047680517       25.8547071611  TIP3      832             0.0000000000
     24748      1024  TIP3      H2            -22.0777404059       -8.8122034019       25.7323538527  TIP3      832             0.0000000000
     24749      1025  TIP3      OH2           -22.6324446738       -9.9920811892       34.3455396354  TIP3      833             0.0000000000
     24750      1025  TIP3      H1            -22.6170024450       -9.1734263609       34.8690839388  TIP3      833             0.0000000000
     24751      1025  TIP3      H2            -23.2586084224       -9.6962585804       33.6533686823  TIP3      833             0.0000000000
     24752      1026  TIP3      OH2           -30.9251322044       -7.4950845744       27.1430132674  TIP3      834             0.0000000000
     24753      1026  TIP3      H1            -31.2807907462       -7.9032267201       26.3223971647  TIP3      834             0.0000000000
     24754      1026  TIP3      H2            -30.3227728981       -8.1922798386       27.4865168578  TIP3      834             0.0000000000
     24755      1027  TIP3      OH2           -29.6208687210       -4.1044319944       29.8348810249  TIP3      835             0.0000000000
     24756      1027  TIP3      H1            -29.6350319868       -4.6341335683       29.0281880172  TIP3      835             0.0000000000
     24757      1027  TIP3      H2            -28.8339789379       -4.4684505823       30.2828091090  TIP3      835             0.0000000000
     24758      1028  TIP3      OH2           -30.5793479079       -8.7558478945       30.7997939698  TIP3      836             0.0000000000
     24759      1028  TIP3      H1            -30.0393291496       -8.6386572025       29.9974276995  TIP3      836             0.0000000000
     24760      1028  TIP3      H2            -30.2256238051       -8.0768083042       31.4167303787  TIP3      836             0.0000000000
     24761      1029  TIP3      OH2           -24.2101298951       -3.1796478021       31.5049247745  TIP3      837             0.0000000000
     24762      1029  TIP3      H1            -24.4830446671       -2.5471596600       32.1753275713  TIP3      837             0.0000000000
     24763      1029  TIP3      H2            -24.4535602433       -4.0362297942       31.9327305587  TIP3      837             0.0000000000
     24764      1030  TIP3      OH2           -29.6579290322       -4.3252386803       35.4984586699  TIP3      838             0.0000000000
     24765      1030  TIP3      H1            -30.0619357589       -3.5769784762       35.9845145125  TIP3      838             0.0000000000
     24766      1030  TIP3      H2            -30.3309760866       -4.5164001581       34.8011167150  TIP3      838             0.0000000000
     24767      1031  TIP3      OH2           -32.7208076617       -8.1465901873       34.6819102418  TIP3      839             0.0000000000
     24768      1031  TIP3      H1            -32.6779364545       -7.4710150106       35.3813226171  TIP3      839             0.0000000000
     24769      1031  TIP3      H2            -33.6595741179       -8.0559322229       34.4438899358  TIP3      839             0.0000000000
     24770      1032  TIP3      OH2           -25.9745972903       -2.2465358658       26.3468915846  TIP3      840             0.0000000000
     24771      1032  TIP3      H1            -25.5334614783       -1.9484658554       27.1552228012  TIP3      840             0.0000000000
     24772      1032  TIP3      H2            -26.5225783850       -1.4831935320       26.1274462404  TIP3      840             0.0000000000
     24773      1033  TIP3      OH2           -31.4121268034       -2.2927885205       36.2473882918  TIP3      841             0.0000000000
     24774      1033  TIP3      H1            -31.4799897718       -2.3831311478       35.2801718279  TIP3      841             0.0000000000
     24775      1033  TIP3      H2            -32.3466350566       -2.4179063154       36.5090414385  TIP3      841             0.0000000000
     24776      1034  TIP3      OH2           -19.9697830980      -17.2398459297       22.7387299225  TIP3      842             0.0000000000
     24777      1034  TIP3      H1            -20.9001127969      -17.1009845034       23.0405528840  TIP3      842             0.0000000000
     24778      1034  TIP3      H2            -19.7728426736      -16.3719119722       22.3809428392  TIP3      842             0.0000000000
     24779      1035  TIP3      OH2           -31.9286378973       -8.4768180781       24.6910236459  TIP3      843             0.0000000000
     24780      1035  TIP3      H1            -32.2615043976       -7.6616020675       24.3027773282  TIP3      843             0.0000000000
     24781      1035  TIP3      H2            -32.6267631071       -9.1249173114       24.5577394183  TIP3      843             0.0000000000
     24782      1036  TIP3      OH2           -35.2994267960       -6.1770050950       33.3926305934  TIP3      844             0.0000000000
     24783      1036  TIP3      H1            -36.0799389863       -6.0552281532       32.8108144196  TIP3      844             0.0000000000
     24784      1036  TIP3      H2            -35.6794139073       -6.9584050365       33.8586636207  TIP3      844             0.0000000000
     24785      1037  TIP3      OH2           -35.8348612019       -3.0923252064       30.1715983012  TIP3      845             0.0000000000
     24786      1037  TIP3      H1            -34.9996544045       -3.4738169079       30.4469080602  TIP3      845             0.0000000000
     24787      1037  TIP3      H2            -36.1127076402       -2.5986061683       30.9568615399  TIP3      845             0.0000000000
     24788      1038  TIP3      OH2           -17.8874319466       -2.6066648324       36.0926820635  TIP3      846             0.0000000000
     24789      1038  TIP3      H1            -17.9960589058       -3.5683029580       36.1005068036  TIP3      846             0.0000000000
     24790      1038  TIP3      H2            -18.7403626397       -2.3612757961       36.5258840486  TIP3      846             0.0000000000
     24791      1039  TIP3      OH2           -26.9224712624       -3.0648807656       34.9863940453  TIP3      847             0.0000000000
     24792      1039  TIP3      H1            -26.8623355017       -2.2273808147       35.5047117640  TIP3      847             0.0000000000
     24793      1039  TIP3      H2            -27.7967584877       -3.4213659897       35.2352044595  TIP3      847             0.0000000000
     24794      1040  TIP3      OH2           -26.4837180839        0.6900992660       24.7653435516  TIP3      848             0.0000000000
     24795      1040  TIP3      H1            -26.5909803679        0.6103815437       23.8012025267  TIP3      848             0.0000000000
     24796      1040  TIP3      H2            -26.4605712502        1.6521849021       24.9347060539  TIP3      848             0.0000000000
     24797      1041  TIP3      OH2           -32.8622599690       -0.4230992352       26.6437074456  TIP3      849             0.0000000000
     24798      1041  TIP3      H1            -32.6999263718       -0.8621701463       27.5038538524  TIP3      849             0.0000000000
     24799      1041  TIP3      H2            -33.6752416016       -0.8743059061       26.3763953693  TIP3      849             0.0000000000
     24800      1042  TIP3      OH2           -23.4360731113       -0.0973582019       21.7667236266  TIP3      850             0.0000000000
     24801      1042  TIP3      H1            -22.9944377402       -0.8601048470       21.3143817674  TIP3      850             0.0000000000
     24802      1042  TIP3      H2            -23.3979016107       -0.3753946352       22.6985084108  TIP3      850             0.0000000000
     24803      1043  TIP3      OH2           -23.7418487396       -0.1689907138       24.5728207854  TIP3      851             0.0000000000
     24804      1043  TIP3      H1            -24.7041062078       -0.1029051950       24.7380361033  TIP3      851             0.0000000000
     24805      1043  TIP3      H2            -23.4850243999       -0.9210607112       25.1293554739  TIP3      851             0.0000000000
     24806      1044  TIP3      OH2           -20.7419887905      -11.1372156724       36.5768635304  TIP3      852             0.0000000000
     24807      1044  TIP3      H1            -21.2090978162      -10.6823503371       35.8604172849  TIP3      852             0.0000000000
     24808      1044  TIP3      H2            -20.7483507870      -12.0592738747       36.2822429904  TIP3      852             0.0000000000
     24809      1045  TIP3      OH2           -33.5803633279       -4.6598650178       34.6546676325  TIP3      853             0.0000000000
     24810      1045  TIP3      H1            -33.3930074082       -5.0999493534       35.5029722064  TIP3      853             0.0000000000
     24811      1045  TIP3      H2            -34.4169989967       -5.1052198931       34.3778546307  TIP3      853             0.0000000000
     24812      1046  TIP3      OH2           -30.9132834921      -16.2558340211       30.5523010312  TIP3      854             0.0000000000
     24813      1046  TIP3      H1            -31.8152355496      -16.3685917909       30.1716537467  TIP3      854             0.0000000000
     24814      1046  TIP3      H2            -31.0411002914      -15.4207193225       31.0273990356  TIP3      854             0.0000000000
     24815      1047  TIP3      OH2           -26.2747046051      -16.5599817409       33.9489053021  TIP3      855             0.0000000000
     24816      1047  TIP3      H1            -25.8833188619      -17.0475377859       34.6719092442  TIP3      855             0.0000000000
     24817      1047  TIP3      H2            -27.2540905095      -16.7017819404       34.0323889287  TIP3      855             0.0000000000
     24818      1048  TIP3      OH2           -22.9973001905      -12.7562608831       34.7889631709  TIP3      856             0.0000000000
     24819      1048  TIP3      H1            -23.5367318365      -12.9370219715       35.5907169716  TIP3      856             0.0000000000
     24820      1048  TIP3      H2            -23.1510727235      -11.8193418218       34.5668253082  TIP3      856             0.0000000000
     24821      1049  TIP3      OH2           -30.8310450538      -11.2912523440       31.7856987300  TIP3      857             0.0000000000
     24822      1049  TIP3      H1            -31.5516089306      -11.2939953574       32.4428755994  TIP3      857             0.0000000000
     24823      1049  TIP3      H2            -30.8478690605      -10.3729485551       31.4305968198  TIP3      857             0.0000000000
     24824      1050  TIP3      OH2           -30.8559693197      -11.1621671687       26.6723536658  TIP3      858             0.0000000000
     24825      1050  TIP3      H1            -31.7881259229      -11.4218612862       26.5129175579  TIP3      858             0.0000000000
     24826      1050  TIP3      H2            -30.4599824581      -11.4781955698       25.8324302931  TIP3      858             0.0000000000
     24827      1051  TIP3      OH2           -25.3706641502      -10.6658869863       25.3811232546  TIP3      859             0.0000000000
     24828      1051  TIP3      H1            -25.7335111919       -9.8316226913       25.1056106750  TIP3      859             0.0000000000
     24829      1051  TIP3      H2            -24.6252047323      -10.8409363646       24.7771145036  TIP3      859             0.0000000000
     24830      1052  TIP3      OH2           -26.2762723034      -10.4519143070       36.8677271560  TIP3      860             0.0000000000
     24831      1052  TIP3      H1            -26.8087135107      -11.2166347754       37.1834673860  TIP3      860             0.0000000000
     24832      1052  TIP3      H2            -25.4406681553      -10.5569976807       37.3537495388  TIP3      860             0.0000000000
     24833      1053  TIP3      OH2           -24.3029906378      -11.1743254912       28.2688495317  TIP3      861             0.0000000000
     24834      1053  TIP3      H1            -24.5719655693      -10.6159203213       27.5232755458  TIP3      861             0.0000000000
     24835      1053  TIP3      H2            -24.1942008757      -12.0339118169       27.8167334268  TIP3      861             0.0000000000
     24836      1054  TIP3      OH2           -33.1692334181      -11.0396921652       33.4902796727  TIP3      862             0.0000000000
     24837      1054  TIP3      H1            -33.1599599613      -10.6200874007       34.3654677200  TIP3      862             0.0000000000
     24838      1054  TIP3      H2            -33.6601596696      -11.8532683358       33.6756196278  TIP3      862             0.0000000000
     24839      1055  TIP3      OH2           -36.1802032447      -13.6175064801       27.2750735329  TIP3      863             0.0000000000
     24840      1055  TIP3      H1            -35.8338914286      -13.9507001416       28.1299173848  TIP3      863             0.0000000000
     24841      1055  TIP3      H2            -36.0208905119      -14.3640744742       26.7027904373  TIP3      863             0.0000000000
     24842      1056  TIP3      OH2           -35.3195252288      -13.0655345684       22.6969791335  TIP3      864             0.0000000000
     24843      1056  TIP3      H1            -34.7444905705      -12.4700891083       22.2089228904  TIP3      864             0.0000000000
     24844      1056  TIP3      H2            -35.9733526173      -12.5004995414       23.1000980954  TIP3      864             0.0000000000
     24845      1057  TIP3      OH2           -25.1002848904       -9.5879628336       32.8400518509  TIP3      865             0.0000000000
     24846      1057  TIP3      H1            -24.7236797362      -10.2704061486       32.2485215640  TIP3      865             0.0000000000
     24847      1057  TIP3      H2            -25.5610452243      -10.1192977013       33.5130080279  TIP3      865             0.0000000000
     24848      1058  TIP3      OH2           -28.2996361487      -13.5949539628       27.6794191044  TIP3      866             0.0000000000
     24849      1058  TIP3      H1            -29.2355970874      -13.6170751649       27.9644177157  TIP3      866             0.0000000000
     24850      1058  TIP3      H2            -27.8171539228      -13.7849024670       28.4955090660  TIP3      866             0.0000000000
     24851      1059  TIP3      OH2           -33.4936236838      -12.0724377818       26.5424294894  TIP3      867             0.0000000000
     24852      1059  TIP3      H1            -34.3624864575      -11.9030225410       26.1342740497  TIP3      867             0.0000000000
     24853      1059  TIP3      H2            -33.2182924369      -12.9066567582       26.1204681573  TIP3      867             0.0000000000
     24854      1060  TIP3      OH2           -29.8660133308      -11.9642350352       24.2358767727  TIP3      868             0.0000000000
     24855      1060  TIP3      H1            -28.8960106307      -11.9413366976       24.3381519709  TIP3      868             0.0000000000
     24856      1060  TIP3      H2            -30.0986084429      -11.3805996864       23.4981772264  TIP3      868             0.0000000000
     24857      1061  TIP3      OH2           -23.8952157034      -14.3814867595       30.9121861349  TIP3      869             0.0000000000
     24858      1061  TIP3      H1            -24.5849030151      -14.3229280115       31.6073069174  TIP3      869             0.0000000000
     24859      1061  TIP3      H2            -24.4017869282      -14.6258638958       30.1242699279  TIP3      869             0.0000000000
     24860      1062  TIP3      OH2           -31.1049832065      -10.7450615115       21.7237898111  TIP3      870             0.0000000000
     24861      1062  TIP3      H1            -31.6843761879      -11.1606841408       21.0859054162  TIP3      870             0.0000000000
     24862      1062  TIP3      H2            -30.2921154280      -10.6770757556       21.2411204735  TIP3      870             0.0000000000
     24863      1063  TIP3      OH2           -20.6929901001        1.2657336529       37.2669691791  TIP3      871             0.0000000000
     24864      1063  TIP3      H1            -20.4182419202        1.6362103987       36.4069998889  TIP3      871             0.0000000000
     24865      1063  TIP3      H2            -19.9645246575        1.5769959550       37.8312237393  TIP3      871             0.0000000000
     24866      1064  TIP3      OH2           -33.0254514010       -6.2882255381       36.8213518270  TIP3      872             0.0000000000
     24867      1064  TIP3      H1            -32.3042746259       -6.0346185301       37.4310083291  TIP3      872             0.0000000000
     24868      1064  TIP3      H2            -33.7924120879       -6.1587360996       37.4018399733  TIP3      872             0.0000000000
     24869      1065  TIP3      OH2           -27.0197743995      -10.8571527569       29.5454477142  TIP3      873             0.0000000000
     24870      1065  TIP3      H1            -26.4146595504      -11.4050964976       29.0349152826  TIP3      873             0.0000000000
     24871      1065  TIP3      H2            -27.1622645157      -11.3931135329       30.3389053729  TIP3      873             0.0000000000
     24872      1066  TIP3      OH2           -32.0184550601      -14.7030531570       25.9955416307  TIP3      874             0.0000000000
     24873      1066  TIP3      H1            -32.3122225663      -15.6299769775       25.9746235676  TIP3      874             0.0000000000
     24874      1066  TIP3      H2            -31.2135174044      -14.7703000274       25.4554371302  TIP3      874             0.0000000000
     24875      1067  TIP3      OH2           -28.3753293028      -12.5204904530       31.9739534280  TIP3      875             0.0000000000
     24876      1067  TIP3      H1            -29.2035585199      -12.0119122088       32.0698718486  TIP3      875             0.0000000000
     24877      1067  TIP3      H2            -27.8240966355      -12.1810848304       32.7057118543  TIP3      875             0.0000000000
     24878      1068  TIP3      OH2           -20.6277004350       -7.0995378065       32.4805994598  TIP3      876             0.0000000000
     24879      1068  TIP3      H1            -20.0480906552       -6.6277404055       31.8538112830  TIP3      876             0.0000000000
     24880      1068  TIP3      H2            -21.4775159348       -7.0506480900       32.0019488077  TIP3      876             0.0000000000
     24881      1069  TIP3      OH2           -23.9498433834      -13.4800775892       21.8948608159  TIP3      877             0.0000000000
     24882      1069  TIP3      H1            -24.8739424180      -13.3400949135       21.6857442941  TIP3      877             0.0000000000
     24883      1069  TIP3      H2            -23.6206532606      -12.6210840834       22.1964726183  TIP3      877             0.0000000000
     24884      1070  TIP3      OH2           -26.2965305281       -6.0481449079       34.9108925760  TIP3      878             0.0000000000
     24885      1070  TIP3      H1            -26.6485851828       -6.4656883705       35.7043842043  TIP3      878             0.0000000000
     24886      1070  TIP3      H2            -26.5437726633       -5.1218401337       35.0163034276  TIP3      878             0.0000000000
     24887      1071  TIP3      OH2           -23.2305970032      -11.5314491429       23.5924292310  TIP3      879             0.0000000000
     24888      1071  TIP3      H1            -22.3185549607      -11.7346156844       23.9003753167  TIP3      879             0.0000000000
     24889      1071  TIP3      H2            -23.0862499531      -10.8335729247       22.9513684039  TIP3      879             0.0000000000
     24890      1072  TIP3      OH2           -32.6873505010       -6.9178723689       29.4570464015  TIP3      880             0.0000000000
     24891      1072  TIP3      H1            -31.9969950176       -6.9905419260       28.7778428516  TIP3      880             0.0000000000
     24892      1072  TIP3      H2            -32.5918764645       -7.7590869246       29.9362272323  TIP3      880             0.0000000000
     24893      1073  TIP3      OH2           -25.6832400642       -4.8807424700       22.8125252824  TIP3      881             0.0000000000
     24894      1073  TIP3      H1            -26.0282186984       -3.9737279297       23.0266068645  TIP3      881             0.0000000000
     24895      1073  TIP3      H2            -26.4532080811       -5.4318703875       22.9307614859  TIP3      881             0.0000000000
     24896      1074  TIP3      OH2           -35.7151772921       -8.5251595922       34.7373625181  TIP3      882             0.0000000000
     24897      1074  TIP3      H1            -35.4599943418       -8.9631052508       35.5723552382  TIP3      882             0.0000000000
     24898      1074  TIP3      H2            -36.3062745802       -9.1624235463       34.3144727987  TIP3      882             0.0000000000
     24899      1075  TIP3      OH2           -28.6789740587       -8.9554895603       36.9178147980  TIP3      883             0.0000000000
     24900      1075  TIP3      H1            -28.9912845238       -9.2473479549       36.0509093009  TIP3      883             0.0000000000
     24901      1075  TIP3      H2            -27.7486494623       -9.2608781568       36.9123214078  TIP3      883             0.0000000000
     24902      1076  TIP3      OH2           -23.9957320170       -3.6169108290       34.8613406638  TIP3      884             0.0000000000
     24903      1076  TIP3      H1            -24.9208066885       -3.4339176839       34.6283664940  TIP3      884             0.0000000000
     24904      1076  TIP3      H2            -24.0251370440       -3.3277950929       35.7933314341  TIP3      884             0.0000000000
     24905      1077  TIP3      OH2           -18.3323767244       -5.5736117205       36.0620097585  TIP3      885             0.0000000000
     24906      1077  TIP3      H1            -19.2217107051       -5.3515609308       35.6940133403  TIP3      885             0.0000000000
     24907      1077  TIP3      H2            -17.7869039318       -5.6206769008       35.2504797286  TIP3      885             0.0000000000
     24908      1078  TIP3      OH2           -20.0250669180       -2.5963991406       23.6457841821  TIP3      886             0.0000000000
     24909      1078  TIP3      H1            -20.3942868585       -3.4140806484       23.9999397458  TIP3      886             0.0000000000
     24910      1078  TIP3      H2            -19.7362334417       -2.8189286956       22.7496279084  TIP3      886             0.0000000000
     24911      1079  TIP3      OH2           -22.8373991485       -7.7880141872       30.7587512847  TIP3      887             0.0000000000
     24912      1079  TIP3      H1            -23.7770136000       -8.0020579804       30.6464566241  TIP3      887             0.0000000000
     24913      1079  TIP3      H2            -22.4006041219       -8.5490347491       30.3303796506  TIP3      887             0.0000000000
     24914      1080  TIP3      OH2           -30.3107407250       -3.4705806838       26.8433982577  TIP3      888             0.0000000000
     24915      1080  TIP3      H1            -29.8140783837       -2.6523293135       26.6596512926  TIP3      888             0.0000000000
     24916      1080  TIP3      H2            -31.1857600823       -3.2168230259       26.5207594593  TIP3      888             0.0000000000
     24917      1081  TIP3      OH2           -34.5387643465       -8.6348236389       21.5430174490  TIP3      889             0.0000000000
     24918      1081  TIP3      H1            -33.9693274627       -7.9215182853       21.7946183677  TIP3      889             0.0000000000
     24919      1081  TIP3      H2            -35.4416240160       -8.3138243043       21.6643939882  TIP3      889             0.0000000000
     24920      1082  TIP3      OH2           -28.8907929226       -5.7936968644       26.3854496568  TIP3      890             0.0000000000
     24921      1082  TIP3      H1            -29.1915522369       -4.8677529539       26.4638847871  TIP3      890             0.0000000000
     24922      1082  TIP3      H2            -29.6177709226       -6.2727686526       26.8250113363  TIP3      890             0.0000000000
     24923      1083  TIP3      OH2           -28.4259805729       -1.6160604190       32.7763508956  TIP3      891             0.0000000000
     24924      1083  TIP3      H1            -27.9855026196       -0.7982445207       32.4986480847  TIP3      891             0.0000000000
     24925      1083  TIP3      H2            -27.8211420102       -1.9464212779       33.4643864998  TIP3      891             0.0000000000
     24926      1084  TIP3      OH2           -30.2101188805       -0.8341035389       26.0266310088  TIP3      892             0.0000000000
     24927      1084  TIP3      H1            -31.1694009496       -0.6549320495       26.0111589724  TIP3      892             0.0000000000
     24928      1084  TIP3      H2            -29.8457430986        0.0440933809       26.2241664524  TIP3      892             0.0000000000
     24929      1085  TIP3      OH2           -24.9090629710       -5.6048455762       32.4072811958  TIP3      893             0.0000000000
     24930      1085  TIP3      H1            -25.2430184597       -5.8005150827       33.3078532610  TIP3      893             0.0000000000
     24931      1085  TIP3      H2            -24.2711441369       -6.3169901593       32.2391958277  TIP3      893             0.0000000000
     24932      1086  TIP3      OH2           -22.1031339562       -1.0254083764       34.8979914306  TIP3      894             0.0000000000
     24933      1086  TIP3      H1            -22.7877479370       -1.5238527153       34.4119736720  TIP3      894             0.0000000000
     24934      1086  TIP3      H2            -21.9136760087       -0.3273088036       34.2363091201  TIP3      894             0.0000000000
     24935      1087  TIP3      OH2           -34.0355701687      -13.7660356952       34.2441013134  TIP3      895             0.0000000000
     24936      1087  TIP3      H1            -34.9263460286      -13.4010659143       34.3212723663  TIP3      895             0.0000000000
     24937      1087  TIP3      H2            -34.1508870940      -14.6016571669       34.7310544236  TIP3      895             0.0000000000
     24938      1088  TIP3      OH2           -21.8003417021       -5.9372150093       23.7379130211  TIP3      896             0.0000000000
     24939      1088  TIP3      H1            -22.0066909919       -6.7042944940       24.3078356701  TIP3      896             0.0000000000
     24940      1088  TIP3      H2            -20.8424479818       -5.8489995722       23.8995051982  TIP3      896             0.0000000000
     24941      1089  TIP3      OH2           -34.2677792315       -1.9354095591       32.6712288865  TIP3      897             0.0000000000
     24942      1089  TIP3      H1            -34.1468983663       -2.8946885252       32.7238605955  TIP3      897             0.0000000000
     24943      1089  TIP3      H2            -34.1691326800       -1.7041246333       33.6008327488  TIP3      897             0.0000000000
     24944      1090  TIP3      OH2           -25.3194297034      -14.0047938674       33.2593306660  TIP3      898             0.0000000000
     24945      1090  TIP3      H1            -24.5813675231      -13.9364306266       33.8728880696  TIP3      898             0.0000000000
     24946      1090  TIP3      H2            -25.6909220758      -14.8891053169       33.4260894312  TIP3      898             0.0000000000
     24947      1091  TIP3      OH2           -24.5650845163      -14.3927726791       24.3266065371  TIP3      899             0.0000000000
     24948      1091  TIP3      H1            -24.3188661924      -13.9471865952       23.4902332268  TIP3      899             0.0000000000
     24949      1091  TIP3      H2            -23.9750383842      -13.9859728172       24.9732527705  TIP3      899             0.0000000000
     24950      1092  TIP3      OH2           -26.9058863164       -2.2974145991       23.1165581640  TIP3      900             0.0000000000
     24951      1092  TIP3      H1            -27.6816003218       -1.7274026002       23.2256570255  TIP3      900             0.0000000000
     24952      1092  TIP3      H2            -26.3461554032       -1.7487036478       22.5472305903  TIP3      900             0.0000000000
     24953      1093  TIP3      OH2           -27.3476932941      -12.6135366672       25.1510403027  TIP3      901             0.0000000000
     24954      1093  TIP3      H1            -26.5164732388      -12.1142193588       25.2094623443  TIP3      901             0.0000000000
     24955      1093  TIP3      H2            -27.6007326739      -12.8064295753       26.0763721701  TIP3      901             0.0000000000
     24956      1094  TIP3      OH2           -26.7918977775      -11.6776424630       34.3609855926  TIP3      902             0.0000000000
     24957      1094  TIP3      H1            -26.6928271192      -11.0873196170       35.1322963429  TIP3      902             0.0000000000
     24958      1094  TIP3      H2            -26.1054877323      -12.3479919516       34.4376683072  TIP3      902             0.0000000000
     24959      1095  TIP3      OH2           -26.4534910175      -15.5937311052       26.0810954115  TIP3      903             0.0000000000
     24960      1095  TIP3      H1            -26.8015003502      -14.9310096104       26.6921560322  TIP3      903             0.0000000000
     24961      1095  TIP3      H2            -25.7868136771      -15.0658457840       25.5853989820  TIP3      903             0.0000000000
     24962      1096  TIP3      OH2           -20.6167856332      -13.8006603571       35.1973782026  TIP3      904             0.0000000000
     24963      1096  TIP3      H1            -21.5294568530      -13.4593097595       35.0533878581  TIP3      904             0.0000000000
     24964      1096  TIP3      H2            -20.2946330444      -13.7954805470       34.2763035094  TIP3      904             0.0000000000
     24965      1097  TIP3      OH2           -21.9889402094       -9.9912911407       29.2344179678  TIP3      905             0.0000000000
     24966      1097  TIP3      H1            -22.8006236438      -10.4410827561       28.9286769421  TIP3      905             0.0000000000
     24967      1097  TIP3      H2            -21.5131937611      -10.6906873487       29.7307847597  TIP3      905             0.0000000000
     24968      1098  TIP3      OH2           -20.9220951798       -0.7418722444       30.8698464966  TIP3      906             0.0000000000
     24969      1098  TIP3      H1            -21.0171654684       -0.0576546260       30.1785380223  TIP3      906             0.0000000000
     24970      1098  TIP3      H2            -19.9586969860       -0.6839975977       31.0451821043  TIP3      906             0.0000000000
     24971      1099  TIP3      OH2           -33.4011508218      -16.6269850146       29.6525464177  TIP3      907             0.0000000000
     24972      1099  TIP3      H1            -33.6211157682      -16.5924786905       28.6930424231  TIP3      907             0.0000000000
     24973      1099  TIP3      H2            -33.8531133018      -17.4523706959       29.9192887321  TIP3      907             0.0000000000
     24974      1100  TIP3      OH2           -34.4709447312       -2.6465627497       25.8494014894  TIP3      908             0.0000000000
     24975      1100  TIP3      H1            -35.3441299376       -2.2563830070       25.7653639531  TIP3      908             0.0000000000
     24976      1100  TIP3      H2            -33.9701994669       -2.2285288233       25.1350568812  TIP3      908             0.0000000000
     24977      1101  TIP3      OH2           -34.9660729328       -0.0143023286       37.0875189839  TIP3      909             0.0000000000
     24978      1101  TIP3      H1            -34.5634143380       -0.2498694372       37.9374310134  TIP3      909             0.0000000000
     24979      1101  TIP3      H2            -35.5015792996       -0.8185399044       36.9266770398  TIP3      909             0.0000000000
     24980      1102  TIP3      OH2           -30.5937075272       -1.1489916949       38.7184018693  TIP3      910             0.0000000000
     24981      1102  TIP3      H1            -29.8196929946       -1.6231110769       39.0436107960  TIP3      910             0.0000000000
     24982      1102  TIP3      H2            -30.6098905215       -1.4057134978       37.7745461634  TIP3      910             0.0000000000
     24983      1103  TIP3      OH2           -24.0935550370       -2.7378671441       37.4489972915  TIP3      911             0.0000000000
     24984      1103  TIP3      H1            -24.3999992870       -3.6293670045       37.7156179892  TIP3      911             0.0000000000
     24985      1103  TIP3      H2            -23.3116537024       -2.6210500877       38.0231859620  TIP3      911             0.0000000000
     24986      1104  TIP3      OH2           -21.8611869288       -1.8273798158       20.3677538942  TIP3      912             0.0000000000
     24987      1104  TIP3      H1            -21.5844226303       -2.6535304797       20.7702236556  TIP3      912             0.0000000000
     24988      1104  TIP3      H2            -21.1527291247       -1.6279972922       19.7472021621  TIP3      912             0.0000000000
     24989      1105  TIP3      OH2           -35.4093725919       -6.2921348611       38.0957261685  TIP3      913             0.0000000000
     24990      1105  TIP3      H1            -35.1624326964       -7.1673333396       37.7378228170  TIP3      913             0.0000000000
     24991      1105  TIP3      H2            -36.0908570737       -5.9939055002       37.4835506182  TIP3      913             0.0000000000
     24992      1106  TIP3      OH2           -28.6335600668       -6.2955675833       37.4625615991  TIP3      914             0.0000000000
     24993      1106  TIP3      H1            -28.9777092757       -5.9792729145       36.6065040043  TIP3      914             0.0000000000
     24994      1106  TIP3      H2            -28.5541362583       -7.2705849530       37.3546760810  TIP3      914             0.0000000000
     24995      1107  TIP3      OH2           -25.5625770921       -4.8777225644       19.9131291691  TIP3      915             0.0000000000
     24996      1107  TIP3      H1            -25.8881312237       -4.6580485689       20.7950631547  TIP3      915             0.0000000000
     24997      1107  TIP3      H2            -25.7988439202       -5.7926727681       19.7371861183  TIP3      915             0.0000000000
     24998      1108  TIP3      OH2           -22.9426954272       -6.4236568455       34.8767200168  TIP3      916             0.0000000000
     24999      1108  TIP3      H1            -22.1586361678       -5.8339965431       34.8052825758  TIP3      916             0.0000000000
     25000      1108  TIP3      H2            -23.6449865582       -5.7582901825       34.9165194435  TIP3      916             0.0000000000
     25001      1109  TIP3      OH2           -34.4938408379       -9.0476627579       37.4669351606  TIP3      917             0.0000000000
     25002      1109  TIP3      H1            -34.0250127037       -9.8981842294       37.3844954168  TIP3      917             0.0000000000
     25003      1109  TIP3      H2            -34.6673481210       -9.0390358063       38.4218942467  TIP3      917             0.0000000000
     25004      1110  TIP3      OH2           -30.5364103722      -10.0972463191       34.8382966399  TIP3      918             0.0000000000
     25005      1110  TIP3      H1            -31.1438081609       -9.3866115900       35.1004115418  TIP3      918             0.0000000000
     25006      1110  TIP3      H2            -30.1480311213       -9.7309581637       34.0249142619  TIP3      918             0.0000000000
     25007      1111  TIP3      OH2           -25.4693366278       -7.5290401151       38.2292805369  TIP3      919             0.0000000000
     25008      1111  TIP3      H1            -24.5145371820       -7.5401992473       38.0612763348  TIP3      919             0.0000000000
     25009      1111  TIP3      H2            -25.6324951140       -8.3067493495       38.7789469098  TIP3      919             0.0000000000
     25010      1112  TIP3      OH2           -30.1141924917      -12.7046399185       35.8841410903  TIP3      920             0.0000000000
     25011      1112  TIP3      H1            -30.0339685919      -13.4235815204       35.2319458733  TIP3      920             0.0000000000
     25012      1112  TIP3      H2            -30.1955807510      -11.9020142676       35.3351197800  TIP3      920             0.0000000000
     25013      1113  TIP3      OH2           -29.7304172681      -14.3411993271       33.4424546185  TIP3      921             0.0000000000
     25014      1113  TIP3      H1            -29.2165061804      -13.8780963202       32.7386151067  TIP3      921             0.0000000000
     25015      1113  TIP3      H2            -30.6228200363      -14.4210962706       33.0319642599  TIP3      921             0.0000000000
     25016      1114  TIP3      OH2           -28.1907271225       -8.8601186405       33.6851277957  TIP3      922             0.0000000000
     25017      1114  TIP3      H1            -27.4352307789       -9.0194010807       33.1104176253  TIP3      922             0.0000000000
     25018      1114  TIP3      H2            -28.5503173838       -8.0202745962       33.3548753274  TIP3      922             0.0000000000
     25019      1115  TIP3      OH2           -23.7989442847      -11.1214180242       38.6377021223  TIP3      923             0.0000000000
     25020      1115  TIP3      H1            -23.5560800214      -12.0508210524       38.5776428647  TIP3      923             0.0000000000
     25021      1115  TIP3      H2            -22.9337714303      -10.6794002125       38.6640708662  TIP3      923             0.0000000000
     25022      1116  TIP3      OH2           -22.4454320595       -8.3019408359       36.8302989615  TIP3      924             0.0000000000
     25023      1116  TIP3      H1            -22.7050352509       -7.5888598642       36.2048942133  TIP3      924             0.0000000000
     25024      1116  TIP3      H2            -21.4886594226       -8.3439290318       36.6135761299  TIP3      924             0.0000000000
     25025      1117  TIP3      OH2           -31.6858893394      -11.4752646351       37.8351232330  TIP3      925             0.0000000000
     25026      1117  TIP3      H1            -32.4613599316      -12.0475566202       37.6379229534  TIP3      925             0.0000000000
     25027      1117  TIP3      H2            -31.0429311713      -11.8296926646       37.1883737804  TIP3      925             0.0000000000
     25028      1118  TIP3      OH2           -28.9417295545      -16.9015803338       33.8592365727  TIP3      926             0.0000000000
     25029      1118  TIP3      H1            -29.1186241847      -15.9397835194       33.7305091104  TIP3      926             0.0000000000
     25030      1118  TIP3      H2            -29.6827270608      -17.2677738926       33.3382821569  TIP3      926             0.0000000000
     25031      1119  TIP3      OH2           -27.6456103241      -12.6330341723       37.4605630049  TIP3      927             0.0000000000
     25032      1119  TIP3      H1            -27.9971715954      -12.7717688189       38.3610994023  TIP3      927             0.0000000000
     25033      1119  TIP3      H2            -28.4533782199      -12.7425061449       36.9130529434  TIP3      927             0.0000000000
     25034      1120  TIP3      OH2           -24.9819985689      -13.5336955742       36.4804478161  TIP3      928             0.0000000000
     25035      1120  TIP3      H1            -25.9195607207      -13.3306742157       36.6686377463  TIP3      928             0.0000000000
     25036      1120  TIP3      H2            -24.6562893575      -13.9936205650       37.2707043885  TIP3      928             0.0000000000
     25037      1121  TIP3      OH2           -23.5418771857      -14.8352289540       38.4224978871  TIP3      929             0.0000000000
     25038      1121  TIP3      H1            -23.3344205567      -15.7742628451       38.5387854990  TIP3      929             0.0000000000
     25039      1121  TIP3      H2            -23.6064267678      -14.4882792278       39.3577500438  TIP3      929             0.0000000000
     25040      1122  TIP3      OH2           -33.4419753300      -13.5575327162       37.5954832852  TIP3      930             0.0000000000
     25041      1122  TIP3      H1            -33.3374656673      -14.2942583242       36.9659017022  TIP3      930             0.0000000000
     25042      1122  TIP3      H2            -33.6568959056      -14.0051815689       38.4390696360  TIP3      930             0.0000000000
     25043      1123  TIP3      OH2           -28.6603288525      -17.4821581392       36.5322385231  TIP3      931             0.0000000000
     25044      1123  TIP3      H1            -28.0730490437      -18.2526401688       36.4729746374  TIP3      931             0.0000000000
     25045      1123  TIP3      H2            -28.8721861324      -17.3511374666       35.5814186495  TIP3      931             0.0000000000
     25046      1124  TIP3      OH2           -28.3129527733      -15.8967586719       38.5923913763  TIP3      932             0.0000000000
     25047      1124  TIP3      H1            -28.5953617297      -16.4060611678       37.7966579945  TIP3      932             0.0000000000
     25048      1124  TIP3      H2            -28.9423707636      -15.1464143547       38.5559235343  TIP3      932             0.0000000000
     25049      1125  TIP3      OH2           -28.8461360916        1.0890353823       21.8470519022  TIP3      933             0.0000000000
     25050      1125  TIP3      H1            -27.8793616193        1.1308808849       21.8912605878  TIP3      933             0.0000000000
     25051      1125  TIP3      H2            -29.1017767350        1.6170324898       21.0975277337  TIP3      933             0.0000000000
     25052      1126  TIP3      OH2           -35.2834559974       -4.5768485885       21.3587467465  TIP3      934             0.0000000000
     25053      1126  TIP3      H1            -34.4056605527       -4.1498459465       21.4316296117  TIP3      934             0.0000000000
     25054      1126  TIP3      H2            -35.2248042282       -5.0076341548       20.5086030796  TIP3      934             0.0000000000
     25055      1127  TIP3      OH2            36.8459057221        1.1629500148       26.1300386240  TIP3      935             0.0000000000
     25056      1127  TIP3      H1             35.9668733184        0.9051124859       25.7678025654  TIP3      935             0.0000000000
     25057      1127  TIP3      H2             36.9401064611        0.4895317708       26.8435361550  TIP3      935             0.0000000000
     25058      1128  TIP3      OH2           -35.7108340184       -0.8668653876       28.0945101991  TIP3      936             0.0000000000
     25059      1128  TIP3      H1            -36.0756039551       -1.7494985529       28.3257418558  TIP3      936             0.0000000000
     25060      1128  TIP3      H2            -35.4792601227       -0.5703311250       28.9960597627  TIP3      936             0.0000000000
     25061      1129  TIP3      OH2           -18.2034401109       -0.0940065600       31.0680881709  TIP3      937             0.0000000000
     25062      1129  TIP3      H1            -18.1752846965        0.0697075701       32.0272320852  TIP3      937             0.0000000000
     25063      1129  TIP3      H2            -17.4984012312        0.4861634773       30.7620798002  TIP3      937             0.0000000000
     25064      1130  TIP3      OH2           -18.6322753918       -0.4957752480       34.0175849145  TIP3      938             0.0000000000
     25065      1130  TIP3      H1            -19.1004454852       -1.2678759346       33.6329995516  TIP3      938             0.0000000000
     25066      1130  TIP3      H2            -18.1327503571       -0.9445830133       34.7194463968  TIP3      938             0.0000000000
     25067      1131  TIP3      OH2           -20.1758877047       -4.7856028119       38.6758627885  TIP3      939             0.0000000000
     25068      1131  TIP3      H1            -21.0719841485       -4.8028512327       39.0640744249  TIP3      939             0.0000000000
     25069      1131  TIP3      H2            -19.8072881512       -3.9792540445       39.0986300402  TIP3      939             0.0000000000
     25070      1132  TIP3      OH2           -18.8428325766       -6.4842993656       24.0726932809  TIP3      940             0.0000000000
     25071      1132  TIP3      H1            -18.0411771443       -6.0315142341       24.3330804627  TIP3      940             0.0000000000
     25072      1132  TIP3      H2            -18.8784919587       -7.1803179021       24.7639553430  TIP3      940             0.0000000000
     25073      1133  TIP3      OH2           -18.4906856611       -8.3755890177       25.9790435126  TIP3      941             0.0000000000
     25074      1133  TIP3      H1            -19.2435379160       -8.8686947700       26.3722010359  TIP3      941             0.0000000000
     25075      1133  TIP3      H2            -17.9115100123       -8.2406243710       26.7630562915  TIP3      941             0.0000000000
     25076      1134  TIP3      OH2           -18.7550191929       -5.6695203750       30.9819080747  TIP3      942             0.0000000000
     25077      1134  TIP3      H1            -17.9370792148       -6.0551684688       30.6106261383  TIP3      942             0.0000000000
     25078      1134  TIP3      H2            -18.6038746690       -4.7171669962       30.8112303556  TIP3      942             0.0000000000
     25079      1135  TIP3      OH2           -20.1948721037       -2.7708639299       33.2536242761  TIP3      943             0.0000000000
     25080      1135  TIP3      H1            -20.8854139309       -2.4316269754       33.8461270961  TIP3      943             0.0000000000
     25081      1135  TIP3      H2            -20.7439311745       -3.1779998719       32.5492808022  TIP3      943             0.0000000000
     25082      1136  TIP3      OH2           -20.7188455934       -9.8966034131       26.5439291474  TIP3      944             0.0000000000
     25083      1136  TIP3      H1            -20.8459748257      -10.8555561372       26.5388439977  TIP3      944             0.0000000000
     25084      1136  TIP3      H2            -21.0176815282       -9.6746682088       27.4467523849  TIP3      944             0.0000000000
     25085      1137  TIP3      OH2           -35.6630310003       -7.8276450728       30.5506189566  TIP3      945             0.0000000000
     25086      1137  TIP3      H1            -35.4636157919       -7.8746422547       29.5944130649  TIP3      945             0.0000000000
     25087      1137  TIP3      H2            -34.7855294537       -7.9421764689       30.9725590471  TIP3      945             0.0000000000
     25088      1138  TIP3      OH2           -19.8269663548       -7.9416773386       36.2677060771  TIP3      946             0.0000000000
     25089      1138  TIP3      H1            -19.2036701898       -8.6930590250       36.3741528618  TIP3      946             0.0000000000
     25090      1138  TIP3      H2            -19.2309568333       -7.1628500239       36.2507112665  TIP3      946             0.0000000000
     25091      1139  TIP3      OH2           -18.3371421639      -10.0446462318       36.9122553927  TIP3      947             0.0000000000
     25092      1139  TIP3      H1            -19.2116714940      -10.4503539346       36.7387616575  TIP3      947             0.0000000000
     25093      1139  TIP3      H2            -17.7537970321      -10.8171805443       36.8287604905  TIP3      947             0.0000000000
     25094      1140  TIP3      OH2           -21.0237068007      -12.3242478836       25.0469643559  TIP3      948             0.0000000000
     25095      1140  TIP3      H1            -20.7147026430      -13.2555116216       25.1408904920  TIP3      948             0.0000000000
     25096      1140  TIP3      H2            -20.2427970667      -11.9183402926       24.6436149950  TIP3      948             0.0000000000
     25097      1141  TIP3      OH2           -20.3802833352      -11.7743598089       30.4680950306  TIP3      949             0.0000000000
     25098      1141  TIP3      H1            -19.4200942455      -11.5369743539       30.4546485415  TIP3      949             0.0000000000
     25099      1141  TIP3      H2            -20.5737575094      -11.6306977673       31.4068003634  TIP3      949             0.0000000000
     25100      1142  TIP3      OH2           -20.3263711291      -11.0527477232       33.2397866403  TIP3      950             0.0000000000
     25101      1142  TIP3      H1            -21.2008550094      -10.7574612057       33.5754059645  TIP3      950             0.0000000000
     25102      1142  TIP3      H2            -19.8865674369      -10.1925585861       33.0269029028  TIP3      950             0.0000000000
     25103      1143  TIP3      OH2           -35.8023709685      -12.6538462435       36.7645286120  TIP3      951             0.0000000000
     25104      1143  TIP3      H1            -34.9146237308      -12.8183147014       37.1026904867  TIP3      951             0.0000000000
     25105      1143  TIP3      H2            -36.3808707777      -13.3306582005       37.2001824583  TIP3      951             0.0000000000
     25106      1144  TIP3      OH2           -18.0397960666      -16.9971908176       38.5828250191  TIP3      952             0.0000000000
     25107      1144  TIP3      H1            -17.6859502334      -17.6674470129       37.9785134961  TIP3      952             0.0000000000
     25108      1144  TIP3      H2            -17.9346200841      -16.1762537412       38.0676078431  TIP3      952             0.0000000000
     25109      1145  TIP3      OH2           -20.3543912015      -15.0489173852       25.0573311147  TIP3      953             0.0000000000
     25110      1145  TIP3      H1            -20.1517118663      -15.4766883913       25.9165847553  TIP3      953             0.0000000000
     25111      1145  TIP3      H2            -20.9851775914      -15.6770747685       24.6386576344  TIP3      953             0.0000000000
     25112      1146  TIP3      OH2           -34.8288397598      -14.2613000975       29.5835013365  TIP3      954             0.0000000000
     25113      1146  TIP3      H1            -34.3694430573      -15.0533415936       29.9162573524  TIP3      954             0.0000000000
     25114      1146  TIP3      H2            -34.3320428673      -13.5550683945       30.0291417266  TIP3      954             0.0000000000
     25115      1147  TIP3      OH2           -36.0087698216      -10.4913889310       31.0229014726  TIP3      955             0.0000000000
     25116      1147  TIP3      H1            -35.9971556738      -10.9193079983       30.1381560821  TIP3      955             0.0000000000
     25117      1147  TIP3      H2            -35.9328272155       -9.5787980860       30.7531611037  TIP3      955             0.0000000000
     25118      1148  TIP3      OH2           -18.5227081973      -14.8872953787       36.9482634809  TIP3      956             0.0000000000
     25119      1148  TIP3      H1            -19.4651307872      -14.6245198564       36.9106234919  TIP3      956             0.0000000000
     25120      1148  TIP3      H2            -18.4873589125      -15.4375521780       36.1504986228  TIP3      956             0.0000000000
     25121      1149  TIP3      OH2           -35.7662810310      -14.9980199886       24.2880499176  TIP3      957             0.0000000000
     25122      1149  TIP3      H1            -36.7006002553      -14.8084448763       24.4833497540  TIP3      957             0.0000000000
     25123      1149  TIP3      H2            -35.5251226294      -14.2249860637       23.7522308000  TIP3      957             0.0000000000
     25124      1150  TIP3      OH2           -21.4691515862       -0.0105143003       26.6796869693  TIP3      958             0.0000000000
     25125      1150  TIP3      H1            -20.7871975169       -0.2987995399       26.0474276623  TIP3      958             0.0000000000
     25126      1150  TIP3      H2            -20.9585026570        0.4897524536       27.3314663126  TIP3      958             0.0000000000
     25127      1151  TIP3      OH2            37.0336323191      -16.3360517048       33.2427509255  TIP3      959             0.0000000000
     25128      1151  TIP3      H1             36.2395773184      -16.5428592767       33.7614456496  TIP3      959             0.0000000000
     25129      1151  TIP3      H2             36.5489058135      -15.8149267487       32.5784059292  TIP3      959             0.0000000000
     25130      1152  TIP3      OH2           -34.0607286649       -3.0684691355       37.2124279910  TIP3      960             0.0000000000
     25131      1152  TIP3      H1            -34.9134868361       -2.9015889685       36.7959027985  TIP3      960             0.0000000000
     25132      1152  TIP3      H2            -34.3073099602       -3.1631205737       38.1365830402  TIP3      960             0.0000000000
     25133      1153  TIP3      OH2           -31.0998405921       -2.0855254559       33.5025851791  TIP3      961             0.0000000000
     25134      1153  TIP3      H1            -31.5004067426       -1.2497239097       33.2029232031  TIP3      961             0.0000000000
     25135      1153  TIP3      H2            -30.1901327718       -1.9945251564       33.1612060256  TIP3      961             0.0000000000
     25136      1154  TIP3      OH2           -26.8123381611       -0.6795700720       36.3856472732  TIP3      962             0.0000000000
     25137      1154  TIP3      H1            -26.6723194612       -1.0298372756       37.2991388296  TIP3      962             0.0000000000
     25138      1154  TIP3      H2            -25.9106267966       -0.3791191702       36.1493415586  TIP3      962             0.0000000000
     25139      1155  TIP3      OH2           -24.5193031484        0.5887477987       35.6893672611  TIP3      963             0.0000000000
     25140      1155  TIP3      H1            -23.7894072071       -0.0030666565       35.4520022792  TIP3      963             0.0000000000
     25141      1155  TIP3      H2            -24.1427155443        1.0206760705       36.4858359745  TIP3      963             0.0000000000
     25142      1156  TIP3      OH2           -19.5011620321      -16.8044226436       34.7981108190  TIP3      964             0.0000000000
     25143      1156  TIP3      H1            -20.3192075878      -16.4959271445       34.3723381662  TIP3      964             0.0000000000
     25144      1156  TIP3      H2            -19.3300411446      -17.6180679494       34.2705583480  TIP3      964             0.0000000000
     25145      1157  TIP3      OH2           -33.6776037879        1.1410234608       33.4959805358  TIP3      965             0.0000000000
     25146      1157  TIP3      H1            -34.4265915995        1.6263368344       33.0964176491  TIP3      965             0.0000000000
     25147      1157  TIP3      H2            -34.0309313854        0.9413682075       34.3772942453  TIP3      965             0.0000000000
     25148      1158  TIP3      OH2           -31.2246583081        0.7218404119       32.5358173467  TIP3      966             0.0000000000
     25149      1158  TIP3      H1            -32.1214361330        0.8488040121       32.9310243933  TIP3      966             0.0000000000
     25150      1158  TIP3      H2            -31.2837510801        1.3129813139       31.7649731783  TIP3      966             0.0000000000
     25151      1159  TIP3      OH2           -26.5290185341        0.6269975908       31.7147813384  TIP3      967             0.0000000000
     25152      1159  TIP3      H1            -26.9939145255        1.1810561318       31.0682325258  TIP3      967             0.0000000000
     25153      1159  TIP3      H2            -26.3945103176        1.2604954790       32.4539899485  TIP3      967             0.0000000000
     25154      1160  TIP3      OH2           -24.2350492530       -0.5576333452       32.7334181823  TIP3      968             0.0000000000
     25155      1160  TIP3      H1            -25.0977964256       -0.2901282044       32.3773657040  TIP3      968             0.0000000000
     25156      1160  TIP3      H2            -23.7613924090        0.2873822420       32.6428702779  TIP3      968             0.0000000000
     25157      1161  TIP3      OH2           -21.6506397126        1.0117551321       32.9674812884  TIP3      969             0.0000000000
     25158      1161  TIP3      H1            -21.7218969991        1.9702688131       32.7371219769  TIP3      969             0.0000000000
     25159      1161  TIP3      H2            -21.4357809413        0.6369229071       32.0905626897  TIP3      969             0.0000000000
     25160      1162  TIP3      OH2           -34.3035466476       -0.2139530110       30.4089837675  TIP3      970             0.0000000000
     25161      1162  TIP3      H1            -34.2981776083       -0.6666331736       31.2770424907  TIP3      970             0.0000000000
     25162      1162  TIP3      H2            -33.4833401831       -0.5836612062       30.0176016621  TIP3      970             0.0000000000
     25163      1163  TIP3      OH2           -32.2086746177       -1.4988351080       29.0957551969  TIP3      971             0.0000000000
     25164      1163  TIP3      H1            -32.3551714712       -2.4413907598       29.3053352795  TIP3      971             0.0000000000
     25165      1163  TIP3      H2            -31.3298861550       -1.3514109971       29.5112701603  TIP3      971             0.0000000000
     25166      1164  TIP3      OH2           -29.5916857930       -1.0226004563       29.9547934047  TIP3      972             0.0000000000
     25167      1164  TIP3      H1            -29.4109023840       -1.9383197722       29.6755005486  TIP3      972             0.0000000000
     25168      1164  TIP3      H2            -29.5207452766       -1.0815842716       30.9170141498  TIP3      972             0.0000000000
     25169      1165  TIP3      OH2           -26.1036474022      -15.3428765044       29.0931474743  TIP3      973             0.0000000000
     25170      1165  TIP3      H1            -26.7842833205      -15.9905680348       29.3534403809  TIP3      973             0.0000000000
     25171      1165  TIP3      H2            -25.5693962391      -15.8855872094       28.4979139253  TIP3      973             0.0000000000
     25172      1166  TIP3      OH2           -20.9809197453      -17.3192732075       29.1524508719  TIP3      974             0.0000000000
     25173      1166  TIP3      H1            -20.3657607408      -16.7282687409       28.6457401563  TIP3      974             0.0000000000
     25174      1166  TIP3      H2            -21.8640829296      -16.9649566085       28.9166718006  TIP3      974             0.0000000000
     25175      1167  TIP3      OH2           -19.3129955987      -16.0860852196       27.4322765861  TIP3      975             0.0000000000
     25176      1167  TIP3      H1            -18.6197730702      -16.6554457148       27.0217795496  TIP3      975             0.0000000000
     25177      1167  TIP3      H2            -18.8126520894      -15.2513633760       27.5752714797  TIP3      975             0.0000000000
     25178      1168  TIP3      OH2           -33.7622411703      -16.7357963942       26.9738797111  TIP3      976             0.0000000000
     25179      1168  TIP3      H1            -34.5336818094      -16.9640097075       26.4112996608  TIP3      976             0.0000000000
     25180      1168  TIP3      H2            -33.2457508619      -17.5646816201       26.8597707958  TIP3      976             0.0000000000
     25181      1169  TIP3      OH2           -34.9040366727      -16.9899917608       22.7029871866  TIP3      977             0.0000000000
     25182      1169  TIP3      H1            -34.5070452962      -16.3602425723       22.0996185797  TIP3      977             0.0000000000
     25183      1169  TIP3      H2            -35.5357419498      -16.4484505192       23.2038710807  TIP3      977             0.0000000000
     25184      1170  TIP3      OH2           -29.2904382344      -16.7741572811       26.7346652626  TIP3      978             0.0000000000
     25185      1170  TIP3      H1            -28.3677601050      -16.4877788586       26.6313478508  TIP3      978             0.0000000000
     25186      1170  TIP3      H2            -29.3013152689      -17.0675143530       27.6414526567  TIP3      978             0.0000000000
     25187      1171  TIP3      OH2           -23.5581166019      -16.7898536028       28.3429005713  TIP3      979             0.0000000000
     25188      1171  TIP3      H1            -23.6061199027      -16.6880836746       27.3844071824  TIP3      979             0.0000000000
     25189      1171  TIP3      H2            -23.9352270756      -17.6964324325       28.4777285933  TIP3      979             0.0000000000
     25190      1172  TIP3      OH2           -22.2760086984      -16.7495477157       24.0063743683  TIP3      980             0.0000000000
     25191      1172  TIP3      H1            -23.0379620525      -16.1680388858       23.8547401934  TIP3      980             0.0000000000
     25192      1172  TIP3      H2            -22.7198099723      -17.6062244042       24.2201516313  TIP3      980             0.0000000000
     25193      1173  TIP3      OH2           -28.0628792646      -14.7910378137       23.5595391152  TIP3      981             0.0000000000
     25194      1173  TIP3      H1            -27.8897633457      -15.3958165315       24.2865553567  TIP3      981             0.0000000000
     25195      1173  TIP3      H2            -28.0852197400      -13.9487973052       24.0411340781  TIP3      981             0.0000000000
     25196      1174  TIP3      OH2           -26.1963226120        0.2650689428       21.9951433557  TIP3      982             0.0000000000
     25197      1174  TIP3      H1            -25.2638444367        0.4758960254       21.8202166328  TIP3      982             0.0000000000
     25198      1174  TIP3      H2            -26.4136401665       -0.2176344458       21.1866454593  TIP3      982             0.0000000000
     25199      1175  TIP3      OH2           -19.4988880294       -0.2021092925       24.7098924666  TIP3      983             0.0000000000
     25200      1175  TIP3      H1            -19.6913344051       -1.0009001639       24.1523995544  TIP3      983             0.0000000000
     25201      1175  TIP3      H2            -19.5275223818        0.5062933461       24.0566642993  TIP3      983             0.0000000000
     25202      1176  TIP3      OH2           -33.9021724602      -16.1927080150       36.4155267209  TIP3      984             0.0000000000
     25203      1176  TIP3      H1            -34.2408450919      -17.0284814027       36.7927236931  TIP3      984             0.0000000000
     25204      1176  TIP3      H2            -32.9747212085      -16.2447492721       36.7419428317  TIP3      984             0.0000000000
     25205      1177  TIP3      OH2           -31.8540561122      -16.8297339247       38.0171169386  TIP3      985             0.0000000000
     25206      1177  TIP3      H1            -30.9785870662      -17.1848013850       37.7820790951  TIP3      985             0.0000000000
     25207      1177  TIP3      H2            -32.2540977794      -17.6174550189       38.4378126002  TIP3      985             0.0000000000
     25208      1178  TIP3      OH2           -23.4766896371      -17.5367745783       38.1597145075  TIP3      986             0.0000000000
     25209      1178  TIP3      H1            -23.3295415825      -17.9887699024       39.0266551455  TIP3      986             0.0000000000
     25210      1178  TIP3      H2            -22.5335514381      -17.5570437562       37.8360345686  TIP3      986             0.0000000000
     25211      1179  TIP3      OH2           -20.2478194977       -1.4868102121       36.8384277103  TIP3      987             0.0000000000
     25212      1179  TIP3      H1            -21.0413895028       -1.6256996890       36.2772363993  TIP3      987             0.0000000000
     25213      1179  TIP3      H2            -20.3508834075       -0.5320975230       37.0236967102  TIP3      987             0.0000000000
     25214      1180  TIP3      OH2            -5.8132453419       -7.6020098853       26.8009139844  TIP3      988             0.0000000000
     25215      1180  TIP3      H1             -5.7930095567       -6.6232899874       26.7409513657  TIP3      988             0.0000000000
     25216      1180  TIP3      H2             -6.5100674895       -7.8315369159       26.1665324775  TIP3      988             0.0000000000
     25217      1181  TIP3      OH2            -6.9508736081       -8.3478788348       30.3020710730  TIP3      989             0.0000000000
     25218      1181  TIP3      H1             -6.9575363227       -9.0095338036       31.0019182462  TIP3      989             0.0000000000
     25219      1181  TIP3      H2             -7.2769121383       -8.8485925427       29.5343928647  TIP3      989             0.0000000000
     25220      1182  TIP3      OH2           -14.9290202811       -8.4598969460       31.8327983848  TIP3      990             0.0000000000
     25221      1182  TIP3      H1            -14.6869568486       -9.2171386306       32.4059527251  TIP3      990             0.0000000000
     25222      1182  TIP3      H2            -14.0172395203       -8.1177023873       31.9625834739  TIP3      990             0.0000000000
     25223      1183  TIP3      OH2            -3.2575016106       -5.4018177129       28.5662468401  TIP3      991             0.0000000000
     25224      1183  TIP3      H1             -3.6657130556       -6.1208572254       29.0561052544  TIP3      991             0.0000000000
     25225      1183  TIP3      H2             -3.2258380440       -4.6925792379       29.2330515411  TIP3      991             0.0000000000
     25226      1184  TIP3      OH2           -13.6608137616       -4.2203302136       30.3234975741  TIP3      992             0.0000000000
     25227      1184  TIP3      H1            -13.9761010499       -5.1012248737       30.0337541518  TIP3      992             0.0000000000
     25228      1184  TIP3      H2            -12.7121336777       -4.4276863682       30.4067265871  TIP3      992             0.0000000000
     25229      1185  TIP3      OH2           -16.9901005511      -10.6405894310       25.7636119276  TIP3      993             0.0000000000
     25230      1185  TIP3      H1            -17.4565585680       -9.7819758283       25.7844932984  TIP3      993             0.0000000000
     25231      1185  TIP3      H2            -17.5898566352      -11.1939448729       25.2700694721  TIP3      993             0.0000000000
     25232      1186  TIP3      OH2           -16.3295959323       -8.4719448497       27.9337333701  TIP3      994             0.0000000000
     25233      1186  TIP3      H1            -16.0386080620       -9.2560951075       28.4406953094  TIP3      994             0.0000000000
     25234      1186  TIP3      H2            -15.5864203226       -8.3306874626       27.3347609008  TIP3      994             0.0000000000
     25235      1187  TIP3      OH2            -6.1134688576       -0.2141158310       28.8566966225  TIP3      995             0.0000000000
     25236      1187  TIP3      H1             -5.5012569809       -0.9222249383       28.5124779360  TIP3      995             0.0000000000
     25237      1187  TIP3      H2             -6.3465028458       -0.6323643367       29.6830960267  TIP3      995             0.0000000000
     25238      1188  TIP3      OH2            -8.5408767081       -5.9085015401       30.7290722765  TIP3      996             0.0000000000
     25239      1188  TIP3      H1             -8.2369373811       -6.5903014706       30.1115859905  TIP3      996             0.0000000000
     25240      1188  TIP3      H2             -7.7532771044       -5.7971907219       31.2845413631  TIP3      996             0.0000000000
     25241      1189  TIP3      OH2             0.0357055823      -14.2942847998       31.5003688760  TIP3      997             0.0000000000
     25242      1189  TIP3      H1              0.2029126772      -13.6979986221       32.2593017834  TIP3      997             0.0000000000
     25243      1189  TIP3      H2              0.5882705657      -13.8610433528       30.8389490641  TIP3      997             0.0000000000
     25244      1190  TIP3      OH2            -5.4222648971      -11.4797412175       31.0846877587  TIP3      998             0.0000000000
     25245      1190  TIP3      H1             -5.2399205608      -12.4368537797       31.0763916172  TIP3      998             0.0000000000
     25246      1190  TIP3      H2             -5.5089133836      -11.3342668818       30.1213051454  TIP3      998             0.0000000000
     25247      1191  TIP3      OH2           -12.2912202791      -13.3998002068       28.2865043228  TIP3      999             0.0000000000
     25248      1191  TIP3      H1            -12.1822291042      -12.5489544464       27.8199988835  TIP3      999             0.0000000000
     25249      1191  TIP3      H2            -12.6788564502      -13.9647401606       27.5839079308  TIP3      999             0.0000000000
     25250      1192  TIP3      OH2            -4.5359335578      -13.3154586753       26.6595673091  TIP3      1000            0.0000000000
     25251      1192  TIP3      H1             -3.8791089160      -13.6127341421       27.3328159121  TIP3      1000            0.0000000000
     25252      1192  TIP3      H2             -3.9984461028      -12.7359240310       26.1026513643  TIP3      1000            0.0000000000
     25253      1193  TIP3      OH2           -15.6749588593      -10.9924827979       29.0284215856  TIP3      1001            0.0000000000
     25254      1193  TIP3      H1            -14.9870835333      -11.5143602088       29.4905499276  TIP3      1001            0.0000000000
     25255      1193  TIP3      H2            -15.5409610646      -11.2942157546       28.1224515412  TIP3      1001            0.0000000000
     25256      1194  TIP3      OH2           -10.4319217902       -9.4415986888       28.2611240695  TIP3      1002            0.0000000000
     25257      1194  TIP3      H1             -9.8318882044      -10.0193360132       28.7568549857  TIP3      1002            0.0000000000
     25258      1194  TIP3      H2            -11.0254135606      -10.0998073786       27.8470219184  TIP3      1002            0.0000000000
     25259      1195  TIP3      OH2             0.5161677222      -12.8574707514       33.7675727043  TIP3      1003            0.0000000000
     25260      1195  TIP3      H1             -0.1313359531      -12.1258658659       33.6537181665  TIP3      1003            0.0000000000
     25261      1195  TIP3      H2              0.4873560571      -12.9846730862       34.7225536301  TIP3      1003            0.0000000000
     25262      1196  TIP3      OH2           -13.3932532856      -14.4933106497       32.3272773936  TIP3      1004            0.0000000000
     25263      1196  TIP3      H1            -13.6532158432      -13.9048150175       31.5875507301  TIP3      1004            0.0000000000
     25264      1196  TIP3      H2            -14.0617723227      -14.2459436172       33.0106005699  TIP3      1004            0.0000000000
     25265      1197  TIP3      OH2            -6.0817975068       -5.0054193736       25.8907114588  TIP3      1005            0.0000000000
     25266      1197  TIP3      H1             -6.3529559128       -5.2888808351       25.0013264385  TIP3      1005            0.0000000000
     25267      1197  TIP3      H2             -6.3971629605       -4.0703044765       25.9193643000  TIP3      1005            0.0000000000
     25268      1198  TIP3      OH2           -10.7894297499       -6.8145239797       32.6329734882  TIP3      1006            0.0000000000
     25269      1198  TIP3      H1            -11.5756456835       -6.2403453625       32.7742847246  TIP3      1006            0.0000000000
     25270      1198  TIP3      H2            -10.1527691230       -6.2084787325       32.2564062628  TIP3      1006            0.0000000000
     25271      1199  TIP3      OH2            -2.7355186487      -13.9691748997       28.6524111835  TIP3      1007            0.0000000000
     25272      1199  TIP3      H1             -2.9586920484      -14.7355086905       29.1889243686  TIP3      1007            0.0000000000
     25273      1199  TIP3      H2             -2.0739959302      -13.5200574424       29.2065508105  TIP3      1007            0.0000000000
     25274      1200  TIP3      OH2           -13.8411879131      -12.6379367246       30.3274001259  TIP3      1008            0.0000000000
     25275      1200  TIP3      H1            -13.1992651702      -11.9726165960       30.6726118074  TIP3      1008            0.0000000000
     25276      1200  TIP3      H2            -13.2868926794      -13.0467306647       29.6192079824  TIP3      1008            0.0000000000
     25277      1201  TIP3      OH2           -12.4214817494       -4.8379839730       33.4046438268  TIP3      1009            0.0000000000
     25278      1201  TIP3      H1            -12.4729386166       -3.9364143678       33.0476235203  TIP3      1009            0.0000000000
     25279      1201  TIP3      H2            -13.3049727196       -4.9416704605       33.8321220414  TIP3      1009            0.0000000000
     25280      1202  TIP3      OH2            -2.7236732205       -3.5642118126       30.9399739975  TIP3      1010            0.0000000000
     25281      1202  TIP3      H1             -3.6918340483       -3.4558506156       31.0636922564  TIP3      1010            0.0000000000
     25282      1202  TIP3      H2             -2.4565995714       -2.6461774520       30.7446482297  TIP3      1010            0.0000000000
     25283      1203  TIP3      OH2            -2.4178253027      -15.2645968974       32.3328314247  TIP3      1011            0.0000000000
     25284      1203  TIP3      H1             -3.1452952280      -14.6333126158       32.2497271126  TIP3      1011            0.0000000000
     25285      1203  TIP3      H2             -1.7019146796      -14.8555417044       31.8081335611  TIP3      1011            0.0000000000
     25286      1204  TIP3      OH2            -9.4329088599      -17.1592652694       29.8121045499  TIP3      1012            0.0000000000
     25287      1204  TIP3      H1             -9.5770605237      -18.1226331253       29.7290948951  TIP3      1012            0.0000000000
     25288      1204  TIP3      H2            -10.3128609466      -16.8417053390       30.1049620636  TIP3      1012            0.0000000000
     25289      1205  TIP3      OH2            -4.4737654920       -1.7673067495       27.5438223946  TIP3      1013            0.0000000000
     25290      1205  TIP3      H1             -4.0499413639       -2.4942538024       27.0384849178  TIP3      1013            0.0000000000
     25291      1205  TIP3      H2             -4.0443687176       -0.9906308761       27.1312551180  TIP3      1013            0.0000000000
     25292      1206  TIP3      OH2            -3.2469535089       -3.8592881071       26.0297515858  TIP3      1014            0.0000000000
     25293      1206  TIP3      H1             -3.5701777301       -4.5485425879       25.4253954138  TIP3      1014            0.0000000000
     25294      1206  TIP3      H2             -3.2285641137       -4.3482806983       26.8754758042  TIP3      1014            0.0000000000
     25295      1207  TIP3      OH2            -1.6344872457       -5.2610960117       34.5418329794  TIP3      1015            0.0000000000
     25296      1207  TIP3      H1             -1.4896000961       -5.9086717417       33.8167716183  TIP3      1015            0.0000000000
     25297      1207  TIP3      H2             -1.4379574196       -4.4123561953       34.1072492442  TIP3      1015            0.0000000000
     25298      1208  TIP3      OH2            -7.1260150187       -8.3497916389       24.3078480633  TIP3      1016            0.0000000000
     25299      1208  TIP3      H1             -7.8383930085       -7.7883930477       23.9491471213  TIP3      1016            0.0000000000
     25300      1208  TIP3      H2             -6.4382865186       -8.2717774536       23.6270134272  TIP3      1016            0.0000000000
     25301      1209  TIP3      OH2            -7.1090438688       -9.9502607768       21.4118225679  TIP3      1017            0.0000000000
     25302      1209  TIP3      H1             -6.3411448386       -9.8209181382       21.9858376929  TIP3      1017            0.0000000000
     25303      1209  TIP3      H2             -6.7612697476      -10.4906830083       20.7078710923  TIP3      1017            0.0000000000
     25304      1210  TIP3      OH2             0.2506245124       -8.9475914095       32.6000958143  TIP3      1018            0.0000000000
     25305      1210  TIP3      H1             -0.4067610198       -8.2243257961       32.6346971695  TIP3      1018            0.0000000000
     25306      1210  TIP3      H2              0.7331240113       -8.7223302165       31.7830482461  TIP3      1018            0.0000000000
     25307      1211  TIP3      OH2            -3.6874959079       -8.1921343953       25.2204628448  TIP3      1019            0.0000000000
     25308      1211  TIP3      H1             -4.4189953708       -7.9151480303       25.8267333672  TIP3      1019            0.0000000000
     25309      1211  TIP3      H2             -3.2121732547       -8.8250340694       25.7857313891  TIP3      1019            0.0000000000
     25310      1212  TIP3      OH2            -3.7852946330       -9.9946031998       34.3578786536  TIP3      1020            0.0000000000
     25311      1212  TIP3      H1             -3.7449436449       -9.1679516971       34.8665015753  TIP3      1020            0.0000000000
     25312      1212  TIP3      H2             -4.3790624662       -9.6857154430       33.6431052789  TIP3      1020            0.0000000000
     25313      1213  TIP3      OH2           -12.1000174556       -7.5094687479       27.1558779023  TIP3      1021            0.0000000000
     25314      1213  TIP3      H1            -12.3939331567       -7.8953487809       26.3008251153  TIP3      1021            0.0000000000
     25315      1213  TIP3      H2            -11.4689680367       -8.1888201085       27.4903531134  TIP3      1021            0.0000000000
     25316      1214  TIP3      OH2           -10.7490387865       -4.0934384551       29.8228727932  TIP3      1022            0.0000000000
     25317      1214  TIP3      H1            -10.7719566925       -4.6348884776       29.0187920058  TIP3      1022            0.0000000000
     25318      1214  TIP3      H2             -9.9766424326       -4.4681051355       30.2839511235  TIP3      1022            0.0000000000
     25319      1215  TIP3      OH2           -11.6752367412       -8.5147488960       30.4269634092  TIP3      1023            0.0000000000
     25320      1215  TIP3      H1            -10.9273700435       -8.5521594575       29.8491394610  TIP3      1023            0.0000000000
     25321      1215  TIP3      H2            -11.3937588499       -8.1573883146       31.3127798247  TIP3      1023            0.0000000000
     25322      1216  TIP3      OH2            -5.3317082292       -3.1748967000       31.5129132889  TIP3      1024            0.0000000000
     25323      1216  TIP3      H1             -5.6202249322       -2.5606077067       32.1887054956  TIP3      1024            0.0000000000
     25324      1216  TIP3      H2             -5.5922336779       -4.0357573078       31.9248976889  TIP3      1024            0.0000000000
     25325      1217  TIP3      OH2           -10.7934719049       -4.3158840045       35.5041346074  TIP3      1025            0.0000000000
     25326      1217  TIP3      H1            -11.2102574697       -3.5792965163       35.9886785658  TIP3      1025            0.0000000000
     25327      1217  TIP3      H2            -11.4659935020       -4.5256856168       34.8057600527  TIP3      1025            0.0000000000
     25328      1218  TIP3      OH2            -4.7886434791       -9.0254559727       22.8738745690  TIP3      1026            0.0000000000
     25329      1218  TIP3      H1             -4.3157112332       -8.7715959885       23.7031795814  TIP3      1026            0.0000000000
     25330      1218  TIP3      H2             -4.4597124850       -8.3919497409       22.2253555777  TIP3      1026            0.0000000000
     25331      1219  TIP3      OH2           -13.9673489401       -8.1156357975       34.9301968048  TIP3      1027            0.0000000000
     25332      1219  TIP3      H1            -13.8925986319       -7.3494272779       35.4928446648  TIP3      1027            0.0000000000
     25333      1219  TIP3      H2            -14.7929114800       -8.0286637840       34.4419500464  TIP3      1027            0.0000000000
     25334      1220  TIP3      OH2            -7.1068007297       -2.2335248784       26.3475075237  TIP3      1028            0.0000000000
     25335      1220  TIP3      H1             -6.6716090829       -1.9431990371       27.1564276529  TIP3      1028            0.0000000000
     25336      1220  TIP3      H2             -7.6698995036       -1.4804021973       26.1367848444  TIP3      1028            0.0000000000
     25337      1221  TIP3      OH2           -12.5586529715       -2.2832948956       36.2492814509  TIP3      1029            0.0000000000
     25338      1221  TIP3      H1            -12.6119714266       -2.3903413375       35.2847003682  TIP3      1029            0.0000000000
     25339      1221  TIP3      H2            -13.4893348148       -2.4298646255       36.5097237685  TIP3      1029            0.0000000000
     25340      1222  TIP3      OH2            -1.1128746725      -17.2357361681       22.8350793897  TIP3      1030            0.0000000000
     25341      1222  TIP3      H1             -2.0644931393      -17.0850989919       23.0295561211  TIP3      1030            0.0000000000
     25342      1222  TIP3      H2             -0.8971120429      -16.4305749947       22.3306272161  TIP3      1030            0.0000000000
     25343      1223  TIP3      OH2           -13.0903239058       -8.4418251496       24.7065395402  TIP3      1031            0.0000000000
     25344      1223  TIP3      H1            -13.4115772310       -7.6534146592       24.2694354599  TIP3      1031            0.0000000000
     25345      1223  TIP3      H2            -13.7637995983       -9.1159342719       24.5539993859  TIP3      1031            0.0000000000
     25346      1224  TIP3      OH2           -17.0601720819       -6.0355817516       33.6566360366  TIP3      1032            0.0000000000
     25347      1224  TIP3      H1            -17.4604032501       -6.1369074927       32.7756768138  TIP3      1032            0.0000000000
     25348      1224  TIP3      H2            -16.9302750268       -6.9869136021       33.8622303111  TIP3      1032            0.0000000000
     25349      1225  TIP3      OH2           -17.2761173694       -3.2905368762       30.4387663980  TIP3      1033            0.0000000000
     25350      1225  TIP3      H1            -16.3183341000       -3.4249089454       30.4048148173  TIP3      1033            0.0000000000
     25351      1225  TIP3      H2            -17.3448794538       -2.4794261640       30.9519454863  TIP3      1033            0.0000000000
     25352      1226  TIP3      OH2             0.9688518828       -2.6066527222       36.0926996417  TIP3      1034            0.0000000000
     25353      1226  TIP3      H1              0.8600843412       -3.5681207690       36.1009564814  TIP3      1034            0.0000000000
     25354      1226  TIP3      H2              0.1151123207       -2.3606818238       36.5262301275  TIP3      1034            0.0000000000
     25355      1227  TIP3      OH2            -8.0664170200       -3.0636940167       34.9846831265  TIP3      1035            0.0000000000
     25356      1227  TIP3      H1             -8.0070058019       -2.2283875271       35.5047753518  TIP3      1035            0.0000000000
     25357      1227  TIP3      H2             -8.9392427113       -3.4212126251       35.2363459872  TIP3      1035            0.0000000000
     25358      1228  TIP3      OH2            -7.6256520537        0.6811359484       24.7751079568  TIP3      1036            0.0000000000
     25359      1228  TIP3      H1             -7.7019120086        0.5966267609       23.8124125256  TIP3      1036            0.0000000000
     25360      1228  TIP3      H2             -7.6142168326        1.6475708155       24.9225865068  TIP3      1036            0.0000000000
     25361      1229  TIP3      OH2           -13.9805786226       -0.4469777842       26.6120043936  TIP3      1037            0.0000000000
     25362      1229  TIP3      H1            -13.8394135545       -0.8613540684       27.4914952577  TIP3      1037            0.0000000000
     25363      1229  TIP3      H2            -14.8244598069       -0.8640013400       26.3653865741  TIP3      1037            0.0000000000
     25364      1230  TIP3      OH2            -4.6555825274       -0.1613518345       21.7662556925  TIP3      1038            0.0000000000
     25365      1230  TIP3      H1             -4.0935851158       -0.8287980294       21.3176917195  TIP3      1038            0.0000000000
     25366      1230  TIP3      H2             -4.4997619421       -0.3618100324       22.7078617401  TIP3      1038            0.0000000000
     25367      1231  TIP3      OH2            -4.8862402158       -0.1761936379       24.5602183173  TIP3      1039            0.0000000000
     25368      1231  TIP3      H1             -5.8441653315       -0.1042775071       24.7425390854  TIP3      1039            0.0000000000
     25369      1231  TIP3      H2             -4.6375439160       -0.9249595334       25.1172395713  TIP3      1039            0.0000000000
     25370      1232  TIP3      OH2            -1.8888766483      -11.1353850209       36.5762423251  TIP3      1040            0.0000000000
     25371      1232  TIP3      H1             -2.3564540586      -10.6824946515       35.8599626077  TIP3      1040            0.0000000000
     25372      1232  TIP3      H2             -1.8855764553      -12.0571393184       36.2784093356  TIP3      1040            0.0000000000
     25373      1233  TIP3      OH2           -14.7593319764       -4.6895327847       34.6095407856  TIP3      1041            0.0000000000
     25374      1233  TIP3      H1            -14.5112831914       -5.1079602873       35.4644307237  TIP3      1041            0.0000000000
     25375      1233  TIP3      H2            -15.5948060098       -5.1420209835       34.3735018627  TIP3      1041            0.0000000000
     25376      1234  TIP3      OH2           -12.0658763128      -16.2571907288       30.5558652669  TIP3      1042            0.0000000000
     25377      1234  TIP3      H1            -12.9660485752      -16.3818305065       30.1799639311  TIP3      1042            0.0000000000
     25378      1234  TIP3      H2            -12.1915825058      -15.4198953131       31.0266722080  TIP3      1042            0.0000000000
     25379      1235  TIP3      OH2            -7.4179369244      -16.5876513345       33.9103735985  TIP3      1043            0.0000000000
     25380      1235  TIP3      H1             -7.0250407242      -17.0080169158       34.6980487829  TIP3      1043            0.0000000000
     25381      1235  TIP3      H2             -8.3893932677      -16.7120057186       34.0532517605  TIP3      1043            0.0000000000
     25382      1236  TIP3      OH2            -4.1480693451      -12.7515016675       34.7860721842  TIP3      1044            0.0000000000
     25383      1236  TIP3      H1             -4.6696995782      -12.9519540583       35.6033985824  TIP3      1044            0.0000000000
     25384      1236  TIP3      H2             -4.2889866037      -11.8137669340       34.5799746389  TIP3      1044            0.0000000000
     25385      1237  TIP3      OH2           -11.8251517344      -11.6216858725       31.5293492661  TIP3      1045            0.0000000000
     25386      1237  TIP3      H1            -12.4890737037      -11.4719161863       32.2418429375  TIP3      1045            0.0000000000
     25387      1237  TIP3      H2            -11.8700286766      -10.6423965122       31.3517520455  TIP3      1045            0.0000000000
     25388      1238  TIP3      OH2           -12.0063971573      -11.1563259631       26.6634987617  TIP3      1046            0.0000000000
     25389      1238  TIP3      H1            -12.9367967358      -11.4204941545       26.5212077812  TIP3      1046            0.0000000000
     25390      1238  TIP3      H2            -11.6029506205      -11.4746164599       25.8246342984  TIP3      1046            0.0000000000
     25391      1239  TIP3      OH2            -6.4988356839      -10.6761327435       25.4067139457  TIP3      1047            0.0000000000
     25392      1239  TIP3      H1             -6.8866344742       -9.8293467103       25.0934334295  TIP3      1047            0.0000000000
     25393      1239  TIP3      H2             -5.7862753944      -10.8200639436       24.7686367737  TIP3      1047            0.0000000000
     25394      1240  TIP3      OH2            -7.4269921388      -10.4809268858       36.8370962712  TIP3      1048            0.0000000000
     25395      1240  TIP3      H1             -7.9075734071      -11.2484999070       37.2485227254  TIP3      1048            0.0000000000
     25396      1240  TIP3      H2             -6.5832629593      -10.5515122999       37.3433018071  TIP3      1048            0.0000000000
     25397      1241  TIP3      OH2            -5.4604183525      -11.1865032575       28.2687715398  TIP3      1049            0.0000000000
     25398      1241  TIP3      H1             -5.7162892499      -10.6197679538       27.5217058119  TIP3      1049            0.0000000000
     25399      1241  TIP3      H2             -5.3499069056      -12.0330052031       27.7933362531  TIP3      1049            0.0000000000
     25400      1242  TIP3      OH2           -14.7808204422      -11.1345964392       33.6423505991  TIP3      1050            0.0000000000
     25401      1242  TIP3      H1            -14.3131627345      -10.7180169545       34.3885703806  TIP3      1050            0.0000000000
     25402      1242  TIP3      H2            -14.8279601726      -12.0776368606       33.8341022759  TIP3      1050            0.0000000000
     25403      1243  TIP3      OH2           -17.6745828191      -13.9194581634       27.4508918064  TIP3      1051            0.0000000000
     25404      1243  TIP3      H1            -17.0059316477      -13.9654733480       28.1701014995  TIP3      1051            0.0000000000
     25405      1243  TIP3      H2            -17.2191248277      -14.2940204334       26.6735894495  TIP3      1051            0.0000000000
     25406      1244  TIP3      OH2            -6.2832698020       -9.5924657620       32.8317110034  TIP3      1052            0.0000000000
     25407      1244  TIP3      H1             -5.8534947092      -10.2482559935       32.2373984270  TIP3      1052            0.0000000000
     25408      1244  TIP3      H2             -6.6543628474      -10.1578587960       33.5142723202  TIP3      1052            0.0000000000
     25409      1245  TIP3      OH2            -9.4508206467      -13.5898694584       27.6999383319  TIP3      1053            0.0000000000
     25410      1245  TIP3      H1            -10.3933736711      -13.6132375091       27.9694182620  TIP3      1053            0.0000000000
     25411      1245  TIP3      H2             -8.9617187782      -13.7783158494       28.5106314986  TIP3      1053            0.0000000000
     25412      1246  TIP3      OH2           -14.6410730446      -12.0791265456       26.5458759853  TIP3      1054            0.0000000000
     25413      1246  TIP3      H1            -15.5190842301      -11.9038624022       26.1519507340  TIP3      1054            0.0000000000
     25414      1246  TIP3      H2            -14.3392389115      -12.8870501589       26.0971155706  TIP3      1054            0.0000000000
     25415      1247  TIP3      OH2           -11.0145762997      -11.9547890955       24.2402939354  TIP3      1055            0.0000000000
     25416      1247  TIP3      H1            -10.0415311781      -11.9637966321       24.3412197318  TIP3      1055            0.0000000000
     25417      1247  TIP3      H2            -11.2103513604      -11.3811509194       23.4859225625  TIP3      1055            0.0000000000
     25418      1248  TIP3      OH2            -5.0369394264      -14.3789468714       30.9176085615  TIP3      1056            0.0000000000
     25419      1248  TIP3      H1             -5.7290447842      -14.3243958631       31.6097639320  TIP3      1056            0.0000000000
     25420      1248  TIP3      H2             -5.5414678922      -14.6241476912       30.1279884639  TIP3      1056            0.0000000000
     25421      1249  TIP3      OH2           -12.2742846486      -10.7836473320       21.7344987263  TIP3      1057            0.0000000000
     25422      1249  TIP3      H1            -12.8512766177      -11.2009152956       21.0735479405  TIP3      1057            0.0000000000
     25423      1249  TIP3      H2            -11.4573324161      -10.6623095212       21.2559087532  TIP3      1057            0.0000000000
     25424      1250  TIP3      OH2            -1.8424337020        1.2737681058       37.2693084573  TIP3      1058            0.0000000000
     25425      1250  TIP3      H1             -1.5608189793        1.6365839561       36.4085372596  TIP3      1058            0.0000000000
     25426      1250  TIP3      H2             -1.1090585517        1.5709958242       37.8379738758  TIP3      1058            0.0000000000
     25427      1251  TIP3      OH2           -14.1637501038       -6.2180934916       36.8227040479  TIP3      1059            0.0000000000
     25428      1251  TIP3      H1            -13.4376460543       -6.0282890453       37.4381946591  TIP3      1059            0.0000000000
     25429      1251  TIP3      H2            -14.9467175053       -6.1665455448       37.4073978846  TIP3      1059            0.0000000000
     25430      1252  TIP3      OH2            -8.1532981414      -10.8620467601       29.5729864095  TIP3      1060            0.0000000000
     25431      1252  TIP3      H1             -7.5650456892      -11.3990734678       29.0228888204  TIP3      1060            0.0000000000
     25432      1252  TIP3      H2             -8.3163206803      -11.4183234362       30.3418926404  TIP3      1060            0.0000000000
     25433      1253  TIP3      OH2           -13.1624708295      -14.7077162301       26.0025625449  TIP3      1061            0.0000000000
     25434      1253  TIP3      H1            -13.4496221735      -15.6374323355       25.9790849359  TIP3      1061            0.0000000000
     25435      1253  TIP3      H2            -12.3613409633      -14.7761998498       25.4512542948  TIP3      1061            0.0000000000
     25436      1254  TIP3      OH2            -9.4626242585      -12.5522322019       31.9831372096  TIP3      1062            0.0000000000
     25437      1254  TIP3      H1            -10.3199242614      -12.0576411101       32.0084758492  TIP3      1062            0.0000000000
     25438      1254  TIP3      H2             -8.9442388345      -12.1778608800       32.7039986949  TIP3      1062            0.0000000000
     25439      1255  TIP3      OH2            -8.9463320036       -6.3376926810       23.6651947001  TIP3      1063            0.0000000000
     25440      1255  TIP3      H1             -9.7503351998       -6.7785867442       23.3375228015  TIP3      1063            0.0000000000
     25441      1255  TIP3      H2             -9.1540319122       -6.1685997160       24.6042430286  TIP3      1063            0.0000000000
     25442      1256  TIP3      OH2            -1.7491676961       -7.1093469225       32.4712690592  TIP3      1064            0.0000000000
     25443      1256  TIP3      H1             -1.1806827949       -6.6353904840       31.8356125206  TIP3      1064            0.0000000000
     25444      1256  TIP3      H2             -2.6103775283       -7.0522368108       32.0087531720  TIP3      1064            0.0000000000
     25445      1257  TIP3      OH2            -7.4650022737       -6.0684212132       34.9113486753  TIP3      1065            0.0000000000
     25446      1257  TIP3      H1             -7.7856059011       -6.4410064972       35.7326574302  TIP3      1065            0.0000000000
     25447      1257  TIP3      H2             -7.6807645360       -5.1326395100       35.0012437386  TIP3      1065            0.0000000000
     25448      1258  TIP3      OH2            -4.3356615001      -11.6456859581       23.4781674084  TIP3      1066            0.0000000000
     25449      1258  TIP3      H1             -3.4604251797      -11.7206698979       23.8954208765  TIP3      1066            0.0000000000
     25450      1258  TIP3      H2             -4.3221087466      -10.7847430822       23.0218173982  TIP3      1066            0.0000000000
     25451      1259  TIP3      OH2           -13.8382992980       -6.9176206093       29.4559762661  TIP3      1067            0.0000000000
     25452      1259  TIP3      H1            -13.1135962880       -7.0087766772       28.8087493651  TIP3      1067            0.0000000000
     25453      1259  TIP3      H2            -13.7488553867       -7.7589405735       29.9432964617  TIP3      1067            0.0000000000
     25454      1260  TIP3      OH2            -6.8343909617       -4.8559859737       22.7808907479  TIP3      1068            0.0000000000
     25455      1260  TIP3      H1             -7.1759405822       -3.9907658531       23.0620085653  TIP3      1068            0.0000000000
     25456      1260  TIP3      H2             -7.5857898411       -5.4607624137       22.9058155889  TIP3      1068            0.0000000000
     25457      1261  TIP3      OH2           -16.8966132028       -8.4709416168       34.7722825789  TIP3      1069            0.0000000000
     25458      1261  TIP3      H1            -16.6258785753       -8.9563942029       35.5737727986  TIP3      1069            0.0000000000
     25459      1261  TIP3      H2            -17.4340376442       -9.1269374520       34.2922061879  TIP3      1069            0.0000000000
     25460      1262  TIP3      OH2            -9.8111581722       -8.9560578844       36.9724787912  TIP3      1070            0.0000000000
     25461      1262  TIP3      H1            -10.2354253812       -9.1472392110       36.1075186245  TIP3      1070            0.0000000000
     25462      1262  TIP3      H2             -8.8660299044       -9.1891731543       36.9733979404  TIP3      1070            0.0000000000
     25463      1263  TIP3      OH2            -5.1416522666       -3.6183362553       34.8614363713  TIP3      1071            0.0000000000
     25464      1263  TIP3      H1             -6.0669370367       -3.4360295747       34.6278792274  TIP3      1071            0.0000000000
     25465      1263  TIP3      H2             -5.1692564391       -3.3276952115       35.7931059271  TIP3      1071            0.0000000000
     25466      1264  TIP3      OH2             0.5239279216       -5.5767136269       36.0603073020  TIP3      1072            0.0000000000
     25467      1264  TIP3      H1             -0.3675107386       -5.3495958212       35.6952006649  TIP3      1072            0.0000000000
     25468      1264  TIP3      H2              1.0715968228       -5.6160481755       35.2511287197  TIP3      1072            0.0000000000
     25469      1265  TIP3      OH2            -3.9724838479       -7.7914303261       30.7696642863  TIP3      1073            0.0000000000
     25470      1265  TIP3      H1             -4.9155552767       -8.0009607895       30.6548753238  TIP3      1073            0.0000000000
     25471      1265  TIP3      H2             -3.5410445070       -8.5474230647       30.3290748221  TIP3      1073            0.0000000000
     25472      1266  TIP3      OH2           -11.4603086894       -3.4708104338       26.8675853735  TIP3      1074            0.0000000000
     25473      1266  TIP3      H1            -10.9602945323       -2.6681126189       26.6477798756  TIP3      1074            0.0000000000
     25474      1266  TIP3      H2            -12.3342883673       -3.2318126858       26.5326509992  TIP3      1074            0.0000000000
     25475      1267  TIP3      OH2           -10.0291095282       -5.7974269698       26.3988359444  TIP3      1075            0.0000000000
     25476      1267  TIP3      H1            -10.3404954178       -4.8736331369       26.4594327393  TIP3      1075            0.0000000000
     25477      1267  TIP3      H2            -10.7668219337       -6.2758534966       26.8184257576  TIP3      1075            0.0000000000
     25478      1268  TIP3      OH2            -9.5770981716       -1.6147760751       32.7803959419  TIP3      1076            0.0000000000
     25479      1268  TIP3      H1             -9.1315869506       -0.8052557484       32.5090479164  TIP3      1076            0.0000000000
     25480      1268  TIP3      H2             -8.9781603279       -1.9617765118       33.4676192479  TIP3      1076            0.0000000000
     25481      1269  TIP3      OH2           -11.3297480350       -0.8148139611       25.9619369613  TIP3      1077            0.0000000000
     25482      1269  TIP3      H1            -12.2996071450       -0.6756677163       26.0418972624  TIP3      1077            0.0000000000
     25483      1269  TIP3      H2            -10.9837652730        0.0390678887       26.2784659638  TIP3      1077            0.0000000000
     25484      1270  TIP3      OH2            -6.0431245028       -5.5933207046       32.3930628497  TIP3      1078            0.0000000000
     25485      1270  TIP3      H1             -6.3769567546       -5.7755699095       33.2957933412  TIP3      1078            0.0000000000
     25486      1270  TIP3      H2             -5.4153090768       -6.3171833749       32.2368633219  TIP3      1078            0.0000000000
     25487      1271  TIP3      OH2            -3.2469865106       -1.0285008493       34.9019179517  TIP3      1079            0.0000000000
     25488      1271  TIP3      H1             -3.9311438662       -1.5229330645       34.4108996500  TIP3      1079            0.0000000000
     25489      1271  TIP3      H2             -3.0494166380       -0.3324188133       34.2428055332  TIP3      1079            0.0000000000
     25490      1272  TIP3      OH2           -15.1882843885      -13.8032104379       34.3006396312  TIP3      1080            0.0000000000
     25491      1272  TIP3      H1            -16.0856717337      -13.4189335630       34.2610643605  TIP3      1080            0.0000000000
     25492      1272  TIP3      H2            -15.3218627223      -14.6467527840       34.7571775864  TIP3      1080            0.0000000000
     25493      1273  TIP3      OH2            -2.9550957781       -5.9472675304       23.7308926920  TIP3      1081            0.0000000000
     25494      1273  TIP3      H1             -3.2097753769       -6.7021860799       24.2918186235  TIP3      1081            0.0000000000
     25495      1273  TIP3      H2             -2.0267998998       -5.8132851990       23.9368785864  TIP3      1081            0.0000000000
     25496      1274  TIP3      OH2           -15.5646012478       -1.9845567512       32.7129158889  TIP3      1082            0.0000000000
     25497      1274  TIP3      H1            -15.2776670024       -2.9106087133       32.7211971902  TIP3      1082            0.0000000000
     25498      1274  TIP3      H2            -15.3054953167       -1.6992976062       33.5972637840  TIP3      1082            0.0000000000
     25499      1275  TIP3      OH2            -6.4746918543      -13.9892498184       33.2695057225  TIP3      1083            0.0000000000
     25500      1275  TIP3      H1             -5.7258555926      -13.9605669706       33.8756774149  TIP3      1083            0.0000000000
     25501      1275  TIP3      H2             -6.8238761694      -14.8912490013       33.4252923573  TIP3      1083            0.0000000000
     25502      1276  TIP3      OH2            -5.6390948065      -14.4237580242       24.2932195889  TIP3      1084            0.0000000000
     25503      1276  TIP3      H1             -5.4737031828      -13.8743429545       23.5233197160  TIP3      1084            0.0000000000
     25504      1276  TIP3      H2             -5.1246282108      -13.9729238734       24.9796658218  TIP3      1084            0.0000000000
     25505      1277  TIP3      OH2            -8.0407192213       -2.2949042563       23.1148602442  TIP3      1085            0.0000000000
     25506      1277  TIP3      H1             -8.8473545527       -1.7617441722       23.2359745018  TIP3      1085            0.0000000000
     25507      1277  TIP3      H2             -7.4822270350       -1.7365119499       22.5556172162  TIP3      1085            0.0000000000
     25508      1278  TIP3      OH2            -8.4845803666      -12.6610376390       25.1281309115  TIP3      1086            0.0000000000
     25509      1278  TIP3      H1             -7.6957881556      -12.1005371465       25.1985813400  TIP3      1086            0.0000000000
     25510      1278  TIP3      H2             -8.7617980426      -12.8338099710       26.0438676956  TIP3      1086            0.0000000000
     25511      1279  TIP3      OH2            -7.7831334379      -11.7398050191       34.2788107456  TIP3      1087            0.0000000000
     25512      1279  TIP3      H1             -7.5749242018      -11.2421761614       35.0742124992  TIP3      1087            0.0000000000
     25513      1279  TIP3      H2             -7.1727764653      -12.5026638488       34.3523314042  TIP3      1087            0.0000000000
     25514      1280  TIP3      OH2            -7.5432645586      -15.6193657872       26.1146961781  TIP3      1088            0.0000000000
     25515      1280  TIP3      H1             -7.9783037548      -14.9491811585       26.6596199985  TIP3      1088            0.0000000000
     25516      1280  TIP3      H2             -6.9498590565      -15.0539546741       25.5733226826  TIP3      1088            0.0000000000
     25517      1281  TIP3      OH2           -10.6198383006       -1.1756795132       23.1550670068  TIP3      1089            0.0000000000
     25518      1281  TIP3      H1            -10.5112203921       -0.3630652191       22.6537560233  TIP3      1089            0.0000000000
     25519      1281  TIP3      H2            -10.9008941695       -0.8996397891       24.0487484950  TIP3      1089            0.0000000000
     25520      1282  TIP3      OH2            -1.7399698323      -13.7778286859       35.1827050138  TIP3      1090            0.0000000000
     25521      1282  TIP3      H1             -2.6719329467      -13.4746711132       35.0554211985  TIP3      1090            0.0000000000
     25522      1282  TIP3      H2             -1.4375194215      -13.7957492342       34.2609310163  TIP3      1090            0.0000000000
     25523      1283  TIP3      OH2            -3.1324968551       -9.9987328195       29.2002791694  TIP3      1091            0.0000000000
     25524      1283  TIP3      H1             -3.9551351346      -10.4426696069       28.9222449086  TIP3      1091            0.0000000000
     25525      1283  TIP3      H2             -2.6624063852      -10.6853426940       29.7247102286  TIP3      1091            0.0000000000
     25526      1284  TIP3      OH2           -13.6845754689       -4.1137828923       21.8117569823  TIP3      1092            0.0000000000
     25527      1284  TIP3      H1            -13.1322140580       -3.3868451305       22.1135130506  TIP3      1092            0.0000000000
     25528      1284  TIP3      H2            -13.1782899887       -4.4617885986       21.0792214352  TIP3      1092            0.0000000000
     25529      1285  TIP3      OH2            -2.0804853664       -0.7265232559       30.8751913242  TIP3      1093            0.0000000000
     25530      1285  TIP3      H1             -2.1559978384       -0.0532533454       30.1732844953  TIP3      1093            0.0000000000
     25531      1285  TIP3      H2             -1.1146638337       -0.6865265310       31.0468865701  TIP3      1093            0.0000000000
     25532      1286  TIP3      OH2           -14.5729984714      -16.6197586522       29.6665576430  TIP3      1094            0.0000000000
     25533      1286  TIP3      H1            -14.7740534289      -16.5943562908       28.7058857201  TIP3      1094            0.0000000000
     25534      1286  TIP3      H2            -14.9929094771      -17.4649506968       29.9233321841  TIP3      1094            0.0000000000
     25535      1287  TIP3      OH2           -15.6183700546       -2.6714440686       25.8109054908  TIP3      1095            0.0000000000
     25536      1287  TIP3      H1            -16.4872678711       -2.2535851084       25.7592905644  TIP3      1095            0.0000000000
     25537      1287  TIP3      H2            -15.1427848504       -2.2087363139       25.1110584653  TIP3      1095            0.0000000000
     25538      1288  TIP3      OH2           -16.4122282729       -0.0431926270       37.1035426727  TIP3      1096            0.0000000000
     25539      1288  TIP3      H1            -15.8140921626       -0.2456429147       37.8511743916  TIP3      1096            0.0000000000
     25540      1288  TIP3      H2            -16.8191763933       -0.9107054961       36.9296969736  TIP3      1096            0.0000000000
     25541      1289  TIP3      OH2           -11.7296232978       -1.1437306423       38.7129298287  TIP3      1097            0.0000000000
     25542      1289  TIP3      H1            -10.9617277469       -1.6236734911       39.0438982372  TIP3      1097            0.0000000000
     25543      1289  TIP3      H2            -11.7515122044       -1.4071027531       37.7722350047  TIP3      1097            0.0000000000
     25544      1290  TIP3      OH2            -5.2377473449       -2.7375360531       37.4492991324  TIP3      1098            0.0000000000
     25545      1290  TIP3      H1             -5.5437215943       -3.6292551279       37.7154212695  TIP3      1098            0.0000000000
     25546      1290  TIP3      H2             -4.4555852299       -2.6210840602       38.0234371829  TIP3      1098            0.0000000000
     25547      1291  TIP3      OH2            -3.0724327261       -1.8710445493       20.2770914061  TIP3      1099            0.0000000000
     25548      1291  TIP3      H1             -2.7429346591       -2.6036180467       20.8057386521  TIP3      1099            0.0000000000
     25549      1291  TIP3      H2             -2.2828294816       -1.5709654130       19.8164568822  TIP3      1099            0.0000000000
     25550      1292  TIP3      OH2           -16.5060869534       -6.2943797632       38.0898486282  TIP3      1100            0.0000000000
     25551      1292  TIP3      H1            -16.3207686754       -7.1951302798       37.7538221231  TIP3      1100            0.0000000000
     25552      1292  TIP3      H2            -17.2346647854       -6.0135497193       37.5087769130  TIP3      1100            0.0000000000
     25553      1293  TIP3      OH2            -9.7696554300       -6.3019878076       37.4450073415  TIP3      1101            0.0000000000
     25554      1293  TIP3      H1            -10.1377765224       -5.9809479937       36.6002643617  TIP3      1101            0.0000000000
     25555      1293  TIP3      H2             -9.7152066658       -7.2737833663       37.3549748235  TIP3      1101            0.0000000000
     25556      1294  TIP3      OH2            -4.0863939257       -6.4239919989       34.8751551302  TIP3      1102            0.0000000000
     25557      1294  TIP3      H1             -3.3030409477       -5.8337884646       34.8055520677  TIP3      1102            0.0000000000
     25558      1294  TIP3      H2             -4.7896308405       -5.7595346744       34.9151413661  TIP3      1102            0.0000000000
     25559      1295  TIP3      OH2           -15.6202598567       -9.0476935150       37.4951277261  TIP3      1103            0.0000000000
     25560      1295  TIP3      H1            -15.1686671342       -9.8912518023       37.3701828352  TIP3      1103            0.0000000000
     25561      1295  TIP3      H2            -15.8158042016       -9.0398273841       38.4479412951  TIP3      1103            0.0000000000
     25562      1296  TIP3      OH2           -10.9592493653       -7.9330349339       22.4783525224  TIP3      1104            0.0000000000
     25563      1296  TIP3      H1            -11.3859361806       -8.4477050166       23.1872248519  TIP3      1104            0.0000000000
     25564      1296  TIP3      H2            -10.6229279229       -8.6267125822       21.9011173717  TIP3      1104            0.0000000000
     25565      1297  TIP3      OH2           -11.3599440576      -10.0270341628       35.1556080927  TIP3      1105            0.0000000000
     25566      1297  TIP3      H1            -12.2059760502       -9.5026381724       35.1575329577  TIP3      1105            0.0000000000
     25567      1297  TIP3      H2            -11.3528990206       -9.8146909130       34.1683709263  TIP3      1105            0.0000000000
     25568      1298  TIP3      OH2            -6.6171057912       -7.5669822135       38.2010896182  TIP3      1106            0.0000000000
     25569      1298  TIP3      H1             -5.6551982292       -7.5410409354       38.0811190086  TIP3      1106            0.0000000000
     25570      1298  TIP3      H2             -6.7645237325       -8.3159117446       38.7927975663  TIP3      1106            0.0000000000
     25571      1299  TIP3      OH2           -11.1780855463      -12.7069532571       35.8772018944  TIP3      1107            0.0000000000
     25572      1299  TIP3      H1            -11.1926147092      -13.4484363424       35.2403288472  TIP3      1107            0.0000000000
     25573      1299  TIP3      H2            -11.3832628122      -11.9244841941       35.3347131073  TIP3      1107            0.0000000000
     25574      1300  TIP3      OH2           -10.8730593410      -14.3266666342       33.4493598810  TIP3      1108            0.0000000000
     25575      1300  TIP3      H1            -10.3748217872      -13.8791497294       32.7238428393  TIP3      1108            0.0000000000
     25576      1300  TIP3      H2            -11.7652032640      -14.4196177485       33.0356965573  TIP3      1108            0.0000000000
     25577      1301  TIP3      OH2            -9.2429968520       -8.8162446477       33.7024492385  TIP3      1109            0.0000000000
     25578      1301  TIP3      H1             -8.5874143225       -8.9711224847       33.0198647862  TIP3      1109            0.0000000000
     25579      1301  TIP3      H2             -9.7365496194       -8.0409246110       33.3398360725  TIP3      1109            0.0000000000
     25580      1302  TIP3      OH2            -4.9501817721      -11.1090280868       38.6160167942  TIP3      1110            0.0000000000
     25581      1302  TIP3      H1             -4.7083433407      -12.0488916416       38.5833158540  TIP3      1110            0.0000000000
     25582      1302  TIP3      H2             -4.0790202146      -10.6796274363       38.6612813740  TIP3      1110            0.0000000000
     25583      1303  TIP3      OH2            -3.5848774850       -8.2954901253       36.8283374296  TIP3      1111            0.0000000000
     25584      1303  TIP3      H1             -3.8428032320       -7.5800920801       36.2051579241  TIP3      1111            0.0000000000
     25585      1303  TIP3      H2             -2.6350210488       -8.3426408714       36.6105244505  TIP3      1111            0.0000000000
     25586      1304  TIP3      OH2           -12.7857618452      -11.5049985481       37.8561698013  TIP3      1112            0.0000000000
     25587      1304  TIP3      H1            -13.5938557181      -12.0204614260       37.6331524730  TIP3      1112            0.0000000000
     25588      1304  TIP3      H2            -12.1770421045      -11.8359966936       37.1782899084  TIP3      1112            0.0000000000
     25589      1305  TIP3      OH2           -10.0922672251      -16.9167482838       33.8492045098  TIP3      1113            0.0000000000
     25590      1305  TIP3      H1            -10.2571556082      -15.9558305549       33.7344185759  TIP3      1113            0.0000000000
     25591      1305  TIP3      H2            -10.8382964146      -17.2739726275       33.3372723446  TIP3      1113            0.0000000000
     25592      1306  TIP3      OH2            -8.8517984546      -12.5247596199       37.4497660699  TIP3      1114            0.0000000000
     25593      1306  TIP3      H1             -9.1061553863      -12.7994865705       38.3580423464  TIP3      1114            0.0000000000
     25594      1306  TIP3      H2             -9.6324512172      -12.8277787633       36.9456269445  TIP3      1114            0.0000000000
     25595      1307  TIP3      OH2            -6.1090901139      -13.4141917230       36.5398777150  TIP3      1115            0.0000000000
     25596      1307  TIP3      H1             -7.0665805549      -13.4109901511       36.6783572133  TIP3      1115            0.0000000000
     25597      1307  TIP3      H2             -5.8080390075      -14.0627790599       37.2088055775  TIP3      1115            0.0000000000
     25598      1308  TIP3      OH2            -4.5445014437      -14.8001334776       38.4490818301  TIP3      1116            0.0000000000
     25599      1308  TIP3      H1             -4.5622241952      -15.7765141031       38.4850366466  TIP3      1116            0.0000000000
     25600      1308  TIP3      H2             -4.7793996925      -14.5112837113       39.3631924300  TIP3      1116            0.0000000000
     25601      1309  TIP3      OH2           -14.7272379784      -13.5397242109       37.5617233774  TIP3      1117            0.0000000000
     25602      1309  TIP3      H1            -14.4836294733      -14.2785329985       36.9754072351  TIP3      1117            0.0000000000
     25603      1309  TIP3      H2            -14.8114937409      -13.9808613864       38.4338576969  TIP3      1117            0.0000000000
     25604      1310  TIP3      OH2            -9.8714828985      -17.5238433736       36.5365957039  TIP3      1118            0.0000000000
     25605      1310  TIP3      H1             -9.1819602689      -18.2192761323       36.5079349532  TIP3      1118            0.0000000000
     25606      1310  TIP3      H2             -9.9796739432      -17.3576396354       35.5810286267  TIP3      1118            0.0000000000
     25607      1311  TIP3      OH2            -9.5200782978      -15.9123249405       38.6307674195  TIP3      1119            0.0000000000
     25608      1311  TIP3      H1             -9.6796592706      -16.4095331509       37.7918901623  TIP3      1119            0.0000000000
     25609      1311  TIP3      H2            -10.1107107320      -15.1438490701       38.5367315754  TIP3      1119            0.0000000000
     25610      1312  TIP3      OH2           -17.7103570593        0.9909670663       26.2748529775  TIP3      1120            0.0000000000
     25611      1312  TIP3      H1            -18.4090752833        0.4994260318       25.7868172708  TIP3      1120            0.0000000000
     25612      1312  TIP3      H2            -17.4234227547        0.3215935189       26.9222222272  TIP3      1120            0.0000000000
     25613      1313  TIP3      OH2           -16.8842335510       -0.9034100212       28.1280745262  TIP3      1121            0.0000000000
     25614      1313  TIP3      H1            -17.2363310134       -1.7809775101       28.3240302229  TIP3      1121            0.0000000000
     25615      1313  TIP3      H2            -16.6625976946       -0.5689234846       29.0124311327  TIP3      1121            0.0000000000
     25616      1314  TIP3      OH2             0.6517829544       -0.0942823618       31.0672973775  TIP3      1122            0.0000000000
     25617      1314  TIP3      H1              0.6800023255        0.0710308304       32.0252488423  TIP3      1122            0.0000000000
     25618      1314  TIP3      H2              1.3571374807        0.4859086071       30.7617106193  TIP3      1122            0.0000000000
     25619      1315  TIP3      OH2             0.2286474279       -0.5007346217       34.0216960514  TIP3      1123            0.0000000000
     25620      1315  TIP3      H1             -0.2433382995       -1.2684381590       33.6337825943  TIP3      1123            0.0000000000
     25621      1315  TIP3      H2              0.7294849605       -0.9566469122       34.7216144105  TIP3      1123            0.0000000000
     25622      1316  TIP3      OH2            -1.3244900258       -4.7885572997       38.6747885839  TIP3      1124            0.0000000000
     25623      1316  TIP3      H1             -2.2191665069       -4.8030343270       39.0651824751  TIP3      1124            0.0000000000
     25624      1316  TIP3      H2             -0.9529029511       -3.9825513125       39.0961210262  TIP3      1124            0.0000000000
     25625      1317  TIP3      OH2             0.1074206718       -5.6739973131       30.9832334690  TIP3      1125            0.0000000000
     25626      1317  TIP3      H1              0.9233856750       -6.0517967976       30.6088961682  TIP3      1125            0.0000000000
     25627      1317  TIP3      H2              0.2512408502       -4.7219449657       30.8030842679  TIP3      1125            0.0000000000
     25628      1318  TIP3      OH2            -1.3387767979       -2.7720239050       33.2550415406  TIP3      1126            0.0000000000
     25629      1318  TIP3      H1             -2.0299319056       -2.4312331574       33.8457358766  TIP3      1126            0.0000000000
     25630      1318  TIP3      H2             -1.8876687801       -3.1774356190       32.5488595688  TIP3      1126            0.0000000000
     25631      1319  TIP3      OH2            -1.8481779206       -9.9059865059       26.5410299293  TIP3      1127            0.0000000000
     25632      1319  TIP3      H1             -2.0121479873      -10.8572552695       26.5656984202  TIP3      1127            0.0000000000
     25633      1319  TIP3      H2             -2.1428313115       -9.6599562948       27.4387557123  TIP3      1127            0.0000000000
     25634      1320  TIP3      OH2           -16.9266602313       -7.7342301344       30.5460245932  TIP3      1128            0.0000000000
     25635      1320  TIP3      H1            -16.6400519597       -7.9037197234       29.6326084699  TIP3      1128            0.0000000000
     25636      1320  TIP3      H2            -16.0542049179       -7.9442326466       30.9754264266  TIP3      1128            0.0000000000
     25637      1321  TIP3      OH2            -0.9766465737       -7.9267963158       36.2702333508  TIP3      1129            0.0000000000
     25638      1321  TIP3      H1             -0.3652415946       -8.6854178078       36.3830083481  TIP3      1129            0.0000000000
     25639      1321  TIP3      H2             -0.3731532780       -7.1552917022       36.2518430705  TIP3      1129            0.0000000000
     25640      1322  TIP3      OH2             0.5377870515      -10.0430769805       36.8931073294  TIP3      1130            0.0000000000
     25641      1322  TIP3      H1             -0.3463757496      -10.4411555321       36.7408035549  TIP3      1130            0.0000000000
     25642      1322  TIP3      H2              1.0934431729      -10.8334166257       36.8357726206  TIP3      1130            0.0000000000
     25643      1323  TIP3      OH2            -2.1588085293      -12.3340411664       25.0345849418  TIP3      1131            0.0000000000
     25644      1323  TIP3      H1             -1.8909405387      -13.2756085169       25.1453134117  TIP3      1131            0.0000000000
     25645      1323  TIP3      H2             -1.3853002513      -11.9325375602       24.6404285882  TIP3      1131            0.0000000000
     25646      1324  TIP3      OH2            -1.5313302215      -11.7767183753       30.4663921582  TIP3      1132            0.0000000000
     25647      1324  TIP3      H1             -0.5748593439      -11.5374305859       30.4436404879  TIP3      1132            0.0000000000
     25648      1324  TIP3      H2             -1.7161646848      -11.6259243427       31.4038714144  TIP3      1132            0.0000000000
     25649      1325  TIP3      OH2            -1.4557416282      -11.0535074371       33.2481020557  TIP3      1133            0.0000000000
     25650      1325  TIP3      H1             -2.3360177890      -10.7630067369       33.5744730207  TIP3      1133            0.0000000000
     25651      1325  TIP3      H2             -1.0257527794      -10.1913793628       33.0276664659  TIP3      1133            0.0000000000
     25652      1326  TIP3      OH2           -17.2051881601      -12.5257872885       36.7656614532  TIP3      1134            0.0000000000
     25653      1326  TIP3      H1            -16.2657671290      -12.7111338237       36.9636007623  TIP3      1134            0.0000000000
     25654      1326  TIP3      H2            -17.6596906861      -13.3392465088       37.0729675398  TIP3      1134            0.0000000000
     25655      1327  TIP3      OH2             0.8187476088      -16.9982880421       38.5856936768  TIP3      1135            0.0000000000
     25656      1327  TIP3      H1              1.1659955343      -17.6683973096       37.9779437049  TIP3      1135            0.0000000000
     25657      1327  TIP3      H2              0.9148226342      -16.1797551572       38.0668305387  TIP3      1135            0.0000000000
     25658      1328  TIP3      OH2            -1.5052400565      -15.0267496133       25.0628415245  TIP3      1136            0.0000000000
     25659      1328  TIP3      H1             -1.3177181082      -15.4839972497       25.9094088088  TIP3      1136            0.0000000000
     25660      1328  TIP3      H2             -2.1214670641      -15.6616629761       24.6182502616  TIP3      1136            0.0000000000
     25661      1329  TIP3      OH2           -16.0096067962      -14.2221497610       29.6303380314  TIP3      1137            0.0000000000
     25662      1329  TIP3      H1            -15.5497167053      -15.0474140813       29.8910772728  TIP3      1137            0.0000000000
     25663      1329  TIP3      H2            -15.4610684975      -13.5271257222       30.0245865839  TIP3      1137            0.0000000000
     25664      1330  TIP3      OH2           -17.7420279830      -11.2163128946       30.6540784680  TIP3      1138            0.0000000000
     25665      1330  TIP3      H1            -17.1522379154      -11.4652161259       29.9129761183  TIP3      1138            0.0000000000
     25666      1330  TIP3      H2            -17.2597433379      -10.4270881866       30.9514957891  TIP3      1138            0.0000000000
     25667      1331  TIP3      OH2             0.3354971647      -14.8824724621       36.9487183422  TIP3      1139            0.0000000000
     25668      1331  TIP3      H1             -0.6077971153      -14.6234328077       36.9120799027  TIP3      1139            0.0000000000
     25669      1331  TIP3      H2              0.3698521993      -15.4360145253       36.1520379934  TIP3      1139            0.0000000000
     25670      1332  TIP3      OH2             0.3502563002      -14.9976366202       21.6846287797  TIP3      1140            0.0000000000
     25671      1332  TIP3      H1              0.6933291221      -15.6885226290       21.0828742513  TIP3      1140            0.0000000000
     25672      1332  TIP3      H2              1.0155167506      -14.3231602868       21.5611592708  TIP3      1140            0.0000000000
     25673      1333  TIP3      OH2           -17.3611572993      -14.9394329770       24.7195634173  TIP3      1141            0.0000000000
     25674      1333  TIP3      H1            -18.3086839872      -14.7737539153       24.6088626375  TIP3      1141            0.0000000000
     25675      1333  TIP3      H2            -16.9527261096      -14.4691945162       23.9923648258  TIP3      1141            0.0000000000
     25676      1334  TIP3      OH2            -2.6189952928       -0.0181632471       26.7007991230  TIP3      1142            0.0000000000
     25677      1334  TIP3      H1             -1.9457298391       -0.3073053740       26.0565966024  TIP3      1142            0.0000000000
     25678      1334  TIP3      H2             -2.0879526886        0.4943913709       27.3226923785  TIP3      1142            0.0000000000
     25679      1335  TIP3      OH2           -17.4224059666      -16.3226655919       33.0267983914  TIP3      1143            0.0000000000
     25680      1335  TIP3      H1            -18.0850621894      -16.4992896835       33.7183861812  TIP3      1143            0.0000000000
     25681      1335  TIP3      H2            -17.8686914088      -15.6318002294       32.4926487177  TIP3      1143            0.0000000000
     25682      1336  TIP3      OH2           -15.1731835160       -3.0882437144       37.2119369578  TIP3      1144            0.0000000000
     25683      1336  TIP3      H1            -16.0169539832       -2.9130639772       36.7648823344  TIP3      1144            0.0000000000
     25684      1336  TIP3      H2            -15.4475237905       -3.1610034900       38.1340468100  TIP3      1144            0.0000000000
     25685      1337  TIP3      OH2           -12.2761797943       -2.1074988743       33.4842910223  TIP3      1145            0.0000000000
     25686      1337  TIP3      H1            -12.6145760417       -1.2447207163       33.2041256295  TIP3      1145            0.0000000000
     25687      1337  TIP3      H2            -11.3505649568       -2.0144472075       33.1753029097  TIP3      1145            0.0000000000
     25688      1338  TIP3      OH2            -7.9548032578       -0.6802615664       36.3872658387  TIP3      1146            0.0000000000
     25689      1338  TIP3      H1             -7.8123904459       -1.0284351594       37.3016718793  TIP3      1146            0.0000000000
     25690      1338  TIP3      H2             -7.0548759794       -0.3795093827       36.1479329271  TIP3      1146            0.0000000000
     25691      1339  TIP3      OH2            -5.6585728234        0.6038468404       35.6615070484  TIP3      1147            0.0000000000
     25692      1339  TIP3      H1             -4.9337389133       -0.0104633178       35.4634011734  TIP3      1147            0.0000000000
     25693      1339  TIP3      H2             -5.2960002107        1.0225154456       36.4731390004  TIP3      1147            0.0000000000
     25694      1340  TIP3      OH2            -0.6498835582      -16.7991133999       34.7950350280  TIP3      1148            0.0000000000
     25695      1340  TIP3      H1             -1.4782375697      -16.5001537452       34.3806960441  TIP3      1148            0.0000000000
     25696      1340  TIP3      H2             -0.4775392894      -17.6167034381       34.2713845062  TIP3      1148            0.0000000000
     25697      1341  TIP3      OH2           -14.8488253202        1.1351795220       33.4760976160  TIP3      1149            0.0000000000
     25698      1341  TIP3      H1            -15.5813750913        1.6301230550       33.0768828146  TIP3      1149            0.0000000000
     25699      1341  TIP3      H2            -15.1672135146        0.9372658443       34.3684479626  TIP3      1149            0.0000000000
     25700      1342  TIP3      OH2           -12.3833028393        0.7143726750       32.5470487045  TIP3      1150            0.0000000000
     25701      1342  TIP3      H1            -13.2747003522        0.8489039008       32.9470543062  TIP3      1150            0.0000000000
     25702      1342  TIP3      H2            -12.4550590900        1.2990971223       31.7706676471  TIP3      1150            0.0000000000
     25703      1343  TIP3      OH2            -7.5928695893        0.6714739807       31.6583253317  TIP3      1151            0.0000000000
     25704      1343  TIP3      H1             -8.2846376586        1.0922208996       31.1189032711  TIP3      1151            0.0000000000
     25705      1343  TIP3      H2             -7.5907524633        1.1877826911       32.5067117181  TIP3      1151            0.0000000000
     25706      1344  TIP3      OH2            -5.3742657828       -0.5555954104       32.7153320081  TIP3      1152            0.0000000000
     25707      1344  TIP3      H1             -6.2468469016       -0.3039781686       32.3912582603  TIP3      1152            0.0000000000
     25708      1344  TIP3      H2             -4.8864882095        0.2809129709       32.6652710162  TIP3      1152            0.0000000000
     25709      1345  TIP3      OH2            -2.8361077279        1.0155232751       32.9502754730  TIP3      1153            0.0000000000
     25710      1345  TIP3      H1             -2.8282329372        1.9784164010       32.7420590480  TIP3      1153            0.0000000000
     25711      1345  TIP3      H2             -2.5680765765        0.6328388121       32.0910646919  TIP3      1153            0.0000000000
     25712      1346  TIP3      OH2           -15.3958062993       -0.2150484885       30.4168075326  TIP3      1154            0.0000000000
     25713      1346  TIP3      H1            -15.4715382940       -0.6779574540       31.2782847627  TIP3      1154            0.0000000000
     25714      1346  TIP3      H2            -14.5817963545       -0.5898260575       30.0244682417  TIP3      1154            0.0000000000
     25715      1347  TIP3      OH2           -13.3142291854       -1.5037219758       29.0690280296  TIP3      1155            0.0000000000
     25716      1347  TIP3      H1            -13.4869560634       -2.4403309997       29.2868622629  TIP3      1155            0.0000000000
     25717      1347  TIP3      H2            -12.4613035244       -1.3568496092       29.5268749687  TIP3      1155            0.0000000000
     25718      1348  TIP3      OH2           -10.6838423140       -1.0059665485       29.9519384922  TIP3      1156            0.0000000000
     25719      1348  TIP3      H1            -10.5688871107       -1.9370219590       29.6688302835  TIP3      1156            0.0000000000
     25720      1348  TIP3      H2            -10.7017424767       -1.1195951178       30.9154195740  TIP3      1156            0.0000000000
     25721      1349  TIP3      OH2            -7.2533467248      -15.3690574950       29.0899814262  TIP3      1157            0.0000000000
     25722      1349  TIP3      H1             -7.9398697359      -16.0078570794       29.3394827966  TIP3      1157            0.0000000000
     25723      1349  TIP3      H2             -6.7091953176      -15.8956472811       28.4912665828  TIP3      1157            0.0000000000
     25724      1350  TIP3      OH2            -2.1309267389      -17.3277757879       29.1511985937  TIP3      1158            0.0000000000
     25725      1350  TIP3      H1             -1.5185113438      -16.7324595076       28.6518323280  TIP3      1158            0.0000000000
     25726      1350  TIP3      H2             -3.0109202087      -16.9611373149       28.9258629111  TIP3      1158            0.0000000000
     25727      1351  TIP3      OH2            -0.4465988709      -16.0813626837       27.4496629645  TIP3      1159            0.0000000000
     25728      1351  TIP3      H1              0.2182618427      -16.6637634752       27.0239098028  TIP3      1159            0.0000000000
     25729      1351  TIP3      H2              0.0228830073      -15.2417154446       27.5838563629  TIP3      1159            0.0000000000
     25730      1352  TIP3      OH2           -14.8999954143      -16.7244919022       26.9225208356  TIP3      1160            0.0000000000
     25731      1352  TIP3      H1            -15.6956890252      -16.9569371602       26.4092543179  TIP3      1160            0.0000000000
     25732      1352  TIP3      H2            -14.4280445998      -17.5823442414       26.8780944741  TIP3      1160            0.0000000000
     25733      1353  TIP3      OH2           -16.2045796921      -16.9846834784       22.6109646890  TIP3      1161            0.0000000000
     25734      1353  TIP3      H1            -15.6178866225      -16.3568341924       22.1442369551  TIP3      1161            0.0000000000
     25735      1353  TIP3      H2            -16.6860896066      -16.4262287952       23.2322303964  TIP3      1161            0.0000000000
     25736      1354  TIP3      OH2           -10.4230326147      -16.8293264129       26.7429936682  TIP3      1162            0.0000000000
     25737      1354  TIP3      H1             -9.5307921140      -16.4533903892       26.6264067829  TIP3      1162            0.0000000000
     25738      1354  TIP3      H2            -10.4350282293      -17.0473926903       27.6649135117  TIP3      1162            0.0000000000
     25739      1355  TIP3      OH2            -4.7071821768      -16.7966421464       28.3434758910  TIP3      1163            0.0000000000
     25740      1355  TIP3      H1             -4.7591864307      -16.6854436751       27.3842262962  TIP3      1163            0.0000000000
     25741      1355  TIP3      H2             -5.0884488888      -17.6992648504       28.4781817014  TIP3      1163            0.0000000000
     25742      1356  TIP3      OH2            -3.4480621168      -16.7543615040       24.0176121864  TIP3      1164            0.0000000000
     25743      1356  TIP3      H1             -4.1813265203      -16.1476875552       23.8495880326  TIP3      1164            0.0000000000
     25744      1356  TIP3      H2             -3.9059875822      -17.5968135949       24.2175331829  TIP3      1164            0.0000000000
     25745      1357  TIP3      OH2           -16.1979908771       -0.9858745006       23.6590345949  TIP3      1165            0.0000000000
     25746      1357  TIP3      H1            -16.8529089595       -1.0485656351       22.9482772105  TIP3      1165            0.0000000000
     25747      1357  TIP3      H2            -16.2097214881       -0.0495023374       23.8523948991  TIP3      1165            0.0000000000
     25748      1358  TIP3      OH2           -14.2846151447      -15.1207224785       21.1743899219  TIP3      1166            0.0000000000
     25749      1358  TIP3      H1            -13.7208862529      -15.6947008620       20.6526406855  TIP3      1166            0.0000000000
     25750      1358  TIP3      H2            -13.6448627252      -14.7176868816       21.7789121625  TIP3      1166            0.0000000000
     25751      1359  TIP3      OH2            -7.3680676366        0.2151701098       21.9754400031  TIP3      1167            0.0000000000
     25752      1359  TIP3      H1             -6.4475383228        0.5176415470       21.8365406874  TIP3      1167            0.0000000000
     25753      1359  TIP3      H2             -7.5318643264       -0.2390798089       21.1534415200  TIP3      1167            0.0000000000
     25754      1360  TIP3      OH2            -0.7018862987       -0.2265814328       24.7093742030  TIP3      1168            0.0000000000
     25755      1360  TIP3      H1             -0.7858219709       -0.9618661847       24.0814842394  TIP3      1168            0.0000000000
     25756      1360  TIP3      H2             -0.6505261220        0.4887230883       24.0562324801  TIP3      1168            0.0000000000
     25757      1361  TIP3      OH2           -15.0081197703      -16.2105086410       36.3857766812  TIP3      1169            0.0000000000
     25758      1361  TIP3      H1            -15.3843995100      -17.0092673855       36.8087908276  TIP3      1169            0.0000000000
     25759      1361  TIP3      H2            -14.0904917146      -16.2365623993       36.7441594712  TIP3      1169            0.0000000000
     25760      1362  TIP3      OH2           -12.9964816776      -16.8121279881       38.0266319420  TIP3      1170            0.0000000000
     25761      1362  TIP3      H1            -12.1148199966      -17.1629190397       37.7832612582  TIP3      1170            0.0000000000
     25762      1362  TIP3      H2            -13.3764233643      -17.6150497905       38.4355371104  TIP3      1170            0.0000000000
     25763      1363  TIP3      OH2            -4.5941005792      -17.5285549798       38.1729962530  TIP3      1171            0.0000000000
     25764      1363  TIP3      H1             -4.4954330530      -18.0083900763       39.0167733908  TIP3      1171            0.0000000000
     25765      1363  TIP3      H2             -3.6788687355      -17.5590896712       37.8244613501  TIP3      1171            0.0000000000
     25766      1364  TIP3      OH2            -1.3918453259       -1.4864790812       36.8382791609  TIP3      1172            0.0000000000
     25767      1364  TIP3      H1             -2.1850876287       -1.6258691083       36.2755127629  TIP3      1172            0.0000000000
     25768      1364  TIP3      H2             -1.4950026435       -0.5322775158       37.0237510227  TIP3      1172            0.0000000000
     25769      1365  TIP3      OH2            13.0537290654       -7.6016651595       26.8048729825  TIP3      1173            0.0000000000
     25770      1365  TIP3      H1             13.0705921079       -6.6213017135       26.7521372159  TIP3      1173            0.0000000000
     25771      1365  TIP3      H2             12.3267430846       -7.8136367558       26.2231610253  TIP3      1173            0.0000000000
     25772      1366  TIP3      OH2            11.9065800001       -8.3454891598       30.2793999812  TIP3      1174            0.0000000000
     25773      1366  TIP3      H1             11.8982979698       -8.9959836373       30.9961273509  TIP3      1174            0.0000000000
     25774      1366  TIP3      H2             11.5650029896       -8.8500062986       29.5237716997  TIP3      1174            0.0000000000
     25775      1367  TIP3      OH2             4.2702819451       -8.6842426503       31.8482987365  TIP3      1175            0.0000000000
     25776      1367  TIP3      H1              4.3544086953       -9.3510836616       32.5463325498  TIP3      1175            0.0000000000
     25777      1367  TIP3      H2              5.0113361390       -8.0915219889       32.0475828018  TIP3      1175            0.0000000000
     25778      1368  TIP3      OH2            15.6047140885       -5.4067118949       28.5765562620  TIP3      1176            0.0000000000
     25779      1368  TIP3      H1             15.1830272517       -6.1182751444       29.0660613504  TIP3      1176            0.0000000000
     25780      1368  TIP3      H2             15.6247253995       -4.6882418033       29.2349814951  TIP3      1176            0.0000000000
     25781      1369  TIP3      OH2             5.1906296441       -4.2369088322       30.3621231489  TIP3      1177            0.0000000000
     25782      1369  TIP3      H1              4.8778828408       -5.0958134526       30.0235694032  TIP3      1177            0.0000000000
     25783      1369  TIP3      H2              6.1489341217       -4.4143675147       30.3963942704  TIP3      1177            0.0000000000
     25784      1370  TIP3      OH2             1.8710326986      -10.6656868005       25.7027765793  TIP3      1178            0.0000000000
     25785      1370  TIP3      H1              1.4283242427       -9.8085226671       25.8753845189  TIP3      1178            0.0000000000
     25786      1370  TIP3      H2              1.1861355964      -11.1863083680       25.3026125665  TIP3      1178            0.0000000000
     25787      1371  TIP3      OH2             2.5359388790       -8.4757931812       27.9044411500  TIP3      1179            0.0000000000
     25788      1371  TIP3      H1              2.8178885997       -9.2395624696       28.4386599033  TIP3      1179            0.0000000000
     25789      1371  TIP3      H2              3.2852680134       -8.3046495013       27.3265168013  TIP3      1179            0.0000000000
     25790      1372  TIP3      OH2            12.7253975181       -0.2451507344       28.8096759736  TIP3      1180            0.0000000000
     25791      1372  TIP3      H1             13.3677459056       -0.9384628992       28.5170123972  TIP3      1180            0.0000000000
     25792      1372  TIP3      H2             12.5125025836       -0.5719098123       29.6831570771  TIP3      1180            0.0000000000
     25793      1373  TIP3      OH2            10.2889135023       -5.9477860002       30.7512007586  TIP3      1181            0.0000000000
     25794      1373  TIP3      H1             10.6265613862       -6.5741743167       30.0909496414  TIP3      1181            0.0000000000
     25795      1373  TIP3      H2             11.0936421293       -5.7933222610       31.2757371535  TIP3      1181            0.0000000000
     25796      1374  TIP3      OH2            18.8931471272      -14.2917277002       31.4908281567  TIP3      1182            0.0000000000
     25797      1374  TIP3      H1             19.0615663381      -13.6987580080       32.2545190682  TIP3      1182            0.0000000000
     25798      1374  TIP3      H2             19.4523895068      -13.8655797331       30.8260196412  TIP3      1182            0.0000000000
     25799      1375  TIP3      OH2            13.4548863059      -11.4808510229       31.0694707593  TIP3      1183            0.0000000000
     25800      1375  TIP3      H1             13.6202337760      -12.4403264868       31.0709313793  TIP3      1183            0.0000000000
     25801      1375  TIP3      H2             13.3535565960      -11.3365257200       30.1086823518  TIP3      1183            0.0000000000
     25802      1376  TIP3      OH2             6.5423219349      -13.3905668000       28.2917385974  TIP3      1184            0.0000000000
     25803      1376  TIP3      H1              6.6988004415      -12.5516864361       27.8124769667  TIP3      1184            0.0000000000
     25804      1376  TIP3      H2              6.1948584906      -13.9733516395       27.5983039696  TIP3      1184            0.0000000000
     25805      1377  TIP3      OH2            14.3147888120      -13.2850655796       26.6656082927  TIP3      1185            0.0000000000
     25806      1377  TIP3      H1             14.9711661637      -13.6208028707       27.3227766879  TIP3      1185            0.0000000000
     25807      1377  TIP3      H2             14.8836384157      -12.7490358457       26.0872746076  TIP3      1185            0.0000000000
     25808      1378  TIP3      OH2             3.1866363756      -10.9966372011       29.0289310925  TIP3      1186            0.0000000000
     25809      1378  TIP3      H1              3.8714128719      -11.5152492177       29.4967078213  TIP3      1186            0.0000000000
     25810      1378  TIP3      H2              3.3249402248      -11.2811711667       28.1256755848  TIP3      1186            0.0000000000
     25811      1379  TIP3      OH2             8.3655919921       -9.4253902287       28.3243251511  TIP3      1187            0.0000000000
     25812      1379  TIP3      H1              9.0215296429      -10.0061311087       28.7438572922  TIP3      1187            0.0000000000
     25813      1379  TIP3      H2              7.8299037837      -10.0843587738       27.8433193044  TIP3      1187            0.0000000000
     25814      1380  TIP3      OH2            19.3332988627      -12.8789382567       33.7629351393  TIP3      1188            0.0000000000
     25815      1380  TIP3      H1             18.7175473737      -12.1226301571       33.6589055207  TIP3      1188            0.0000000000
     25816      1380  TIP3      H2             19.3637693636      -12.9730018380       34.7216258141  TIP3      1188            0.0000000000
     25817      1381  TIP3      OH2             5.4873067632      -14.4608307093       32.3531112548  TIP3      1189            0.0000000000
     25818      1381  TIP3      H1              5.1954251017      -13.9380517125       31.5751440241  TIP3      1189            0.0000000000
     25819      1381  TIP3      H2              4.7712536697      -14.2772727825       32.9997523533  TIP3      1189            0.0000000000
     25820      1382  TIP3      OH2            12.7567291527       -5.0058492737       25.8882423530  TIP3      1190            0.0000000000
     25821      1382  TIP3      H1             12.5034101275       -5.2348294440       24.9849352485  TIP3      1190            0.0000000000
     25822      1382  TIP3      H2             12.4642747254       -4.0668127762       25.9592866883  TIP3      1190            0.0000000000
     25823      1383  TIP3      OH2             7.9887021619       -6.8534241268       32.5846386677  TIP3      1191            0.0000000000
     25824      1383  TIP3      H1              7.2818482165       -6.2072785339       32.7878066464  TIP3      1191            0.0000000000
     25825      1383  TIP3      H2              8.6943165289       -6.2602667889       32.2869485678  TIP3      1191            0.0000000000
     25826      1384  TIP3      OH2            16.1151567863      -13.9676578732       28.6540301667  TIP3      1192            0.0000000000
     25827      1384  TIP3      H1             15.8972130963      -14.7363396991       29.1886756495  TIP3      1192            0.0000000000
     25828      1384  TIP3      H2             16.7849818985      -13.5278471999       29.2046072717  TIP3      1192            0.0000000000
     25829      1385  TIP3      OH2             5.0356800128      -12.6271206383       30.3603251990  TIP3      1193            0.0000000000
     25830      1385  TIP3      H1              5.6717944924      -11.9448749146       30.6713955610  TIP3      1193            0.0000000000
     25831      1385  TIP3      H2              5.5718319764      -13.0527548670       29.6472447323  TIP3      1193            0.0000000000
     25832      1386  TIP3      OH2             6.4407932699       -4.8521602729       33.3983274145  TIP3      1194            0.0000000000
     25833      1386  TIP3      H1              6.3911580595       -3.9409616117       33.0464336738  TIP3      1194            0.0000000000
     25834      1386  TIP3      H2              5.5554291439       -4.9252269145       33.8367095681  TIP3      1194            0.0000000000
     25835      1387  TIP3      OH2             2.4521172192       -5.2004446500       24.1930798317  TIP3      1195            0.0000000000
     25836      1387  TIP3      H1              2.2705339593       -4.8792754872       23.3033838558  TIP3      1195            0.0000000000
     25837      1387  TIP3      H2              2.5957754854       -4.3657331478       24.6714529844  TIP3      1195            0.0000000000
     25838      1388  TIP3      OH2            16.1317201643       -3.5639773033       30.9406521833  TIP3      1196            0.0000000000
     25839      1388  TIP3      H1             15.1637059585       -3.4556144742       31.0627818445  TIP3      1196            0.0000000000
     25840      1388  TIP3      H2             16.4006777418       -2.6463603764       30.7445836736  TIP3      1196            0.0000000000
     25841      1389  TIP3      OH2            16.4514784321      -15.2793293685       32.3325938884  TIP3      1197            0.0000000000
     25842      1389  TIP3      H1             15.7252552238      -14.6478688657       32.2470730199  TIP3      1197            0.0000000000
     25843      1389  TIP3      H2             17.1620152142      -14.8591496458       31.8065542925  TIP3      1197            0.0000000000
     25844      1390  TIP3      OH2             9.4196687112      -17.1612291120       29.7898547509  TIP3      1198            0.0000000000
     25845      1390  TIP3      H1              9.2844634172      -18.1261303680       29.7263370456  TIP3      1198            0.0000000000
     25846      1390  TIP3      H2              8.5433545220      -16.8562775019       30.1000378953  TIP3      1198            0.0000000000
     25847      1391  TIP3      OH2            14.3815911565       -1.7872074474       27.5299285571  TIP3      1199            0.0000000000
     25848      1391  TIP3      H1             14.8266170443       -2.5056667160       27.0333621199  TIP3      1199            0.0000000000
     25849      1391  TIP3      H2             14.8103724411       -0.9893389040       27.1574186579  TIP3      1199            0.0000000000
     25850      1392  TIP3      OH2            15.5878110246       -3.8193819313       26.0636168921  TIP3      1200            0.0000000000
     25851      1392  TIP3      H1             15.3591644559       -4.5326265757       25.4369942718  TIP3      1200            0.0000000000
     25852      1392  TIP3      H2             15.6322497734       -4.3444921779       26.8791284737  TIP3      1200            0.0000000000
     25853      1393  TIP3      OH2            17.2203911328       -5.2626036570       34.5422840973  TIP3      1201            0.0000000000
     25854      1393  TIP3      H1             17.3660462716       -5.9101622022       33.8175648486  TIP3      1201            0.0000000000
     25855      1393  TIP3      H2             17.4236036374       -4.4163652308       34.1073027014  TIP3      1201            0.0000000000
     25856      1394  TIP3      OH2            19.1042085592       -8.9485097336       32.5903104338  TIP3      1202            0.0000000000
     25857      1394  TIP3      H1             18.4434610042       -8.2283115781       32.6317933868  TIP3      1202            0.0000000000
     25858      1394  TIP3      H2             19.5922479438       -8.7176754865       31.7790978749  TIP3      1202            0.0000000000
     25859      1395  TIP3      OH2            15.1150565116       -8.1879908119       25.2124820694  TIP3      1203            0.0000000000
     25860      1395  TIP3      H1             14.4390776535       -7.8963964373       25.8523874233  TIP3      1203            0.0000000000
     25861      1395  TIP3      H2             15.6480353664       -8.8138401666       25.7298671972  TIP3      1203            0.0000000000
     25862      1396  TIP3      OH2            15.0846422218       -9.9889511646       34.3434312046  TIP3      1204            0.0000000000
     25863      1396  TIP3      H1             15.0958410221       -9.1722378669       34.8694131939  TIP3      1204            0.0000000000
     25864      1396  TIP3      H2             14.4550235323       -9.6963040541       33.6535581132  TIP3      1204            0.0000000000
     25865      1397  TIP3      OH2             6.7666459661       -7.5055661222       27.1386940256  TIP3      1205            0.0000000000
     25866      1397  TIP3      H1              6.4371080573       -7.8983853396       26.2982995219  TIP3      1205            0.0000000000
     25867      1397  TIP3      H2              7.3810104960       -8.1926633887       27.4797019034  TIP3      1205            0.0000000000
     25868      1398  TIP3      OH2             8.0913600206       -4.1097460275       29.8336426869  TIP3      1206            0.0000000000
     25869      1398  TIP3      H1              8.0818634169       -4.6329489096       29.0210776614  TIP3      1206            0.0000000000
     25870      1398  TIP3      H2              8.8787913500       -4.4695326422       30.2811557572  TIP3      1206            0.0000000000
     25871      1399  TIP3      OH2             7.1103346561       -8.7649791983       30.8243115281  TIP3      1207            0.0000000000
     25872      1399  TIP3      H1              7.6567531058       -8.6464126275       30.0206525959  TIP3      1207            0.0000000000
     25873      1399  TIP3      H2              7.4916167792       -8.0763779770       31.4114033671  TIP3      1207            0.0000000000
     25874      1400  TIP3      OH2            13.5166637845       -3.1834116884       31.5085212066  TIP3      1208            0.0000000000
     25875      1400  TIP3      H1             13.2280559016       -2.5473639215       32.1693995820  TIP3      1208            0.0000000000
     25876      1400  TIP3      H2             13.2643392252       -4.0365633376       31.9341226837  TIP3      1208            0.0000000000
     25877      1401  TIP3      OH2             8.0475543477       -4.3267845699       35.5261650269  TIP3      1209            0.0000000000
     25878      1401  TIP3      H1              7.6458304269       -3.5501476281       35.9634200972  TIP3      1209            0.0000000000
     25879      1401  TIP3      H2              7.3917907764       -4.5221499273       34.8111980703  TIP3      1209            0.0000000000
     25880      1402  TIP3      OH2             4.9774508733       -8.2217587293       34.7029304592  TIP3      1210            0.0000000000
     25881      1402  TIP3      H1              5.0429250796       -7.4902503418       35.3567203706  TIP3      1210            0.0000000000
     25882      1402  TIP3      H2              4.0604314553       -8.0545641998       34.4278443906  TIP3      1210            0.0000000000
     25883      1403  TIP3      OH2            11.7605592136       -2.2361365304       26.3496420754  TIP3      1211            0.0000000000
     25884      1403  TIP3      H1             12.1854217864       -1.9363036232       27.1651491958  TIP3      1211            0.0000000000
     25885      1403  TIP3      H2             11.1827828668       -1.4886568381       26.1474664326  TIP3      1211            0.0000000000
     25886      1404  TIP3      OH2             6.2982916497       -2.2827102271       36.2478253475  TIP3      1212            0.0000000000
     25887      1404  TIP3      H1              6.2431221125       -2.3869706523       35.2828496193  TIP3      1212            0.0000000000
     25888      1404  TIP3      H2              5.3662955403       -2.4128657652       36.5117588019  TIP3      1212            0.0000000000
     25889      1405  TIP3      OH2             5.7753897076       -8.4437548140       24.7531186587  TIP3      1213            0.0000000000
     25890      1405  TIP3      H1              5.5041594810       -7.6738318767       24.2262157277  TIP3      1213            0.0000000000
     25891      1405  TIP3      H2              5.1154398882       -9.1086659404       24.5543711297  TIP3      1213            0.0000000000
     25892      1406  TIP3      OH2             1.8343679700       -6.0520796128       33.6485222681  TIP3      1214            0.0000000000
     25893      1406  TIP3      H1              1.3841752017       -6.1258809451       32.7867181833  TIP3      1214            0.0000000000
     25894      1406  TIP3      H2              1.9032120509       -7.0006892689       33.8655291225  TIP3      1214            0.0000000000
     25895      1407  TIP3      OH2             1.5914482666       -3.3053599474       30.4296849772  TIP3      1215            0.0000000000
     25896      1407  TIP3      H1              2.5491367559       -3.4271643932       30.4128677038  TIP3      1215            0.0000000000
     25897      1407  TIP3      H2              1.5096167729       -2.4928836620       30.9437129681  TIP3      1215            0.0000000000
     25898      1408  TIP3      OH2            19.8249727054       -2.6070587668       36.0921848217  TIP3      1216            0.0000000000
     25899      1408  TIP3      H1             19.7162102167       -3.5704375877       36.0992007124  TIP3      1216            0.0000000000
     25900      1408  TIP3      H2             18.9708492061       -2.3602386295       36.5249677470  TIP3      1216            0.0000000000
     25901      1409  TIP3      OH2            10.7998746424       -3.0830396043       35.0220854271  TIP3      1217            0.0000000000
     25902      1409  TIP3      H1             10.8494417874       -2.2171351943       35.4919849740  TIP3      1217            0.0000000000
     25903      1409  TIP3      H2              9.8992456142       -3.4018907974       35.2124595754  TIP3      1217            0.0000000000
     25904      1410  TIP3      OH2            11.2607073296        0.6984288353       24.8099167273  TIP3      1218            0.0000000000
     25905      1410  TIP3      H1             11.1285838828        0.5689001167       23.8473509339  TIP3      1218            0.0000000000
     25906      1410  TIP3      H2             11.2368268624        1.6652474376       24.9303762805  TIP3      1218            0.0000000000
     25907      1411  TIP3      OH2             4.8496502707       -0.4356298116       26.6163426449  TIP3      1219            0.0000000000
     25908      1411  TIP3      H1              5.0118424326       -0.8606007707       27.4841160366  TIP3      1219            0.0000000000
     25909      1411  TIP3      H2              4.0105716918       -0.8470502167       26.3643588937  TIP3      1219            0.0000000000
     25910      1412  TIP3      OH2            13.9470577450       -0.1388133284       24.5836625800  TIP3      1220            0.0000000000
     25911      1412  TIP3      H1             12.9797065980       -0.1173438382       24.7225915708  TIP3      1220            0.0000000000
     25912      1412  TIP3      H2             14.2200923326       -0.9144301673       25.1021870465  TIP3      1220            0.0000000000
     25913      1413  TIP3      OH2            16.9711047737      -11.1357572184       36.5762330757  TIP3      1221            0.0000000000
     25914      1413  TIP3      H1             16.5028297153      -10.6833981523       35.8593793515  TIP3      1221            0.0000000000
     25915      1413  TIP3      H2             16.9647738872      -12.0580512020       36.2808145531  TIP3      1221            0.0000000000
     25916      1414  TIP3      OH2             4.1183627523       -4.7346571672       34.5981776251  TIP3      1222            0.0000000000
     25917      1414  TIP3      H1              4.3389355391       -5.0994916571       35.4788964568  TIP3      1222            0.0000000000
     25918      1414  TIP3      H2              3.2476012056       -5.1284878581       34.3821037176  TIP3      1222            0.0000000000
     25919      1415  TIP3      OH2             6.7948448666      -16.2612002857       30.5556146693  TIP3      1223            0.0000000000
     25920      1415  TIP3      H1              5.8931539714      -16.3884352698       30.1920729835  TIP3      1223            0.0000000000
     25921      1415  TIP3      H2              6.6688048623      -15.4228470279       31.0258648559  TIP3      1223            0.0000000000
     25922      1416  TIP3      OH2            11.4367752872      -16.5857004811       33.9113663935  TIP3      1224            0.0000000000
     25923      1416  TIP3      H1             11.8314247998      -17.0076706338       34.6976528311  TIP3      1224            0.0000000000
     25924      1416  TIP3      H2             10.4671498116      -16.7138762574       34.0557244301  TIP3      1224            0.0000000000
     25925      1417  TIP3      OH2            14.7302193876      -12.7472491660       34.7951921627  TIP3      1225            0.0000000000
     25926      1417  TIP3      H1             14.1743969358      -12.9565499437       35.5871358818  TIP3      1225            0.0000000000
     25927      1417  TIP3      H2             14.5488059639      -11.8205179704       34.5729692534  TIP3      1225            0.0000000000
     25928      1418  TIP3      OH2             6.9042814199      -11.2770896160       31.8198764759  TIP3      1226            0.0000000000
     25929      1418  TIP3      H1              6.1284853421      -11.2980413414       32.4017111874  TIP3      1226            0.0000000000
     25930      1418  TIP3      H2              6.8605774809      -10.3785500354       31.4153415705  TIP3      1226            0.0000000000
     25931      1419  TIP3      OH2             6.8419097479      -11.1821588237       26.6803246125  TIP3      1227            0.0000000000
     25932      1419  TIP3      H1              5.9170421954      -11.4144418440       26.5260424478  TIP3      1227            0.0000000000
     25933      1419  TIP3      H2              7.2587664200      -11.4470874151       25.8368205779  TIP3      1227            0.0000000000
     25934      1420  TIP3      OH2            12.3345767533      -10.6621591562       25.3851753734  TIP3      1228            0.0000000000
     25935      1420  TIP3      H1             11.9728456510       -9.8243379938       25.1096594561  TIP3      1228            0.0000000000
     25936      1420  TIP3      H2             13.0955233787      -10.8259096346       24.7951446682  TIP3      1228            0.0000000000
     25937      1421  TIP3      OH2            11.4358006423      -10.4546622145       36.8681339940  TIP3      1229            0.0000000000
     25938      1421  TIP3      H1             10.9209706458      -11.2342594971       37.1856074246  TIP3      1229            0.0000000000
     25939      1421  TIP3      H2             12.2716493038      -10.5728196398       37.3459514274  TIP3      1229            0.0000000000
     25940      1422  TIP3      OH2            13.4080169644      -11.1744459801       28.2698423734  TIP3      1230            0.0000000000
     25941      1422  TIP3      H1             13.1411609127      -10.6155714468       27.5241329035  TIP3      1230            0.0000000000
     25942      1422  TIP3      H2             13.5190443822      -12.0336415025       27.8166145501  TIP3      1230            0.0000000000
     25943      1423  TIP3      OH2             4.6169688464      -11.0952293699       33.5490194366  TIP3      1231            0.0000000000
     25944      1423  TIP3      H1              4.4391798851      -10.5034898310       34.2978105787  TIP3      1231            0.0000000000
     25945      1423  TIP3      H2              4.0074244504      -11.8505326154       33.6377955630  TIP3      1231            0.0000000000
     25946      1424  TIP3      OH2             1.2365606851      -13.8400456445       27.4254964821  TIP3      1232            0.0000000000
     25947      1424  TIP3      H1              1.8093090503      -13.9706562060       28.2230686697  TIP3      1232            0.0000000000
     25948      1424  TIP3      H2              1.4852110972      -14.4748887521       26.7595196450  TIP3      1232            0.0000000000
     25949      1425  TIP3      OH2            12.6061020046       -9.5894741987       32.8415551619  TIP3      1233            0.0000000000
     25950      1425  TIP3      H1             12.9878061613      -10.2696057532       32.2496440466  TIP3      1233            0.0000000000
     25951      1425  TIP3      H2             12.1493362793      -10.1212048166       33.5145197599  TIP3      1233            0.0000000000
     25952      1426  TIP3      OH2             9.4165141644      -13.6145264981       27.6821653144  TIP3      1234            0.0000000000
     25953      1426  TIP3      H1              8.4889441353      -13.6075436434       27.9759328888  TIP3      1234            0.0000000000
     25954      1426  TIP3      H2              9.9034573200      -13.7751664483       28.5018961646  TIP3      1234            0.0000000000
     25955      1427  TIP3      OH2             4.1704550290      -12.1036735297       26.5718634298  TIP3      1235            0.0000000000
     25956      1427  TIP3      H1              3.3644097569      -11.7943315859       26.1007278578  TIP3      1235            0.0000000000
     25957      1427  TIP3      H2              4.6439298961      -12.8082153340       26.0909432975  TIP3      1235            0.0000000000
     25958      1428  TIP3      OH2             7.8468764355      -12.0281065761       24.1772878073  TIP3      1236            0.0000000000
     25959      1428  TIP3      H1              8.7984977253      -11.9187662343       24.3744611919  TIP3      1236            0.0000000000
     25960      1428  TIP3      H2              7.6464455214      -11.3475713994       23.5099053187  TIP3      1236            0.0000000000
     25961      1429  TIP3      OH2            13.8192758896      -14.3823487115       30.9093340602  TIP3      1237            0.0000000000
     25962      1429  TIP3      H1             13.1306493917      -14.3252666403       31.6053997240  TIP3      1237            0.0000000000
     25963      1429  TIP3      H2             13.3121731296      -14.6255641700       30.1232572545  TIP3      1237            0.0000000000
     25964      1430  TIP3      OH2             6.5902628259      -10.8289385281       21.7576727797  TIP3      1238            0.0000000000
     25965      1430  TIP3      H1              5.9988178842      -11.2106091818       21.0775960830  TIP3      1238            0.0000000000
     25966      1430  TIP3      H2              7.3618429431      -10.6399394143       21.2325445377  TIP3      1238            0.0000000000
     25967      1431  TIP3      OH2            17.0158956193        1.2574482856       37.2598473599  TIP3      1239            0.0000000000
     25968      1431  TIP3      H1             17.2917168865        1.6358185592       36.4035512053  TIP3      1239            0.0000000000
     25969      1431  TIP3      H2             17.7261425474        1.5813527156       37.8287642938  TIP3      1239            0.0000000000
     25970      1432  TIP3      OH2             4.7097535092       -6.3085199387       36.8157473919  TIP3      1240            0.0000000000
     25971      1432  TIP3      H1              5.3968436986       -6.0100437356       37.4297037019  TIP3      1240            0.0000000000
     25972      1432  TIP3      H2              3.9141257755       -6.1693347334       37.3776433079  TIP3      1240            0.0000000000
     25973      1433  TIP3      OH2            10.6985682587      -10.8550480970       29.5455033923  TIP3      1241            0.0000000000
     25974      1433  TIP3      H1             11.3001745036      -11.4056265880       29.0340528955  TIP3      1241            0.0000000000
     25975      1433  TIP3      H2             10.5513197804      -11.3917739988       30.3379169192  TIP3      1241            0.0000000000
     25976      1434  TIP3      OH2             5.6230282353      -14.6904285748       25.9189035617  TIP3      1242            0.0000000000
     25977      1434  TIP3      H1              5.4485826928      -15.6440797006       26.0299707698  TIP3      1242            0.0000000000
     25978      1434  TIP3      H2              6.4920742390      -14.7674891034       25.4640436492  TIP3      1242            0.0000000000
     25979      1435  TIP3      OH2             9.3278488177      -12.5329483677       31.9898064062  TIP3      1243            0.0000000000
     25980      1435  TIP3      H1              8.5143392536      -12.0000007888       32.0562538076  TIP3      1243            0.0000000000
     25981      1435  TIP3      H2              9.9020619473      -12.1762623572       32.6945230640  TIP3      1243            0.0000000000
     25982      1436  TIP3      OH2            17.1039066907       -7.1098028950       32.4760968542  TIP3      1244            0.0000000000
     25983      1436  TIP3      H1             17.6735447178       -6.6270165503       31.8502566950  TIP3      1244            0.0000000000
     25984      1436  TIP3      H2             16.2457153287       -7.0532378666       32.0080704935  TIP3      1244            0.0000000000
     25985      1437  TIP3      OH2            13.7606997425      -13.4344006322       21.7479324531  TIP3      1245            0.0000000000
     25986      1437  TIP3      H1             12.8162308462      -13.3220460826       21.7906617756  TIP3      1245            0.0000000000
     25987      1437  TIP3      H2             14.1357344776      -12.6513946944       22.2148287794  TIP3      1245            0.0000000000
     25988      1438  TIP3      OH2            11.4228746580       -6.0487869642       34.9197929497  TIP3      1246            0.0000000000
     25989      1438  TIP3      H1             11.0572556861       -6.4704641258       35.6993205173  TIP3      1246            0.0000000000
     25990      1438  TIP3      H2             11.1676277318       -5.1217059850       35.0022861193  TIP3      1246            0.0000000000
     25991      1439  TIP3      OH2            14.4771072511      -11.5264524003       23.5319138373  TIP3      1247            0.0000000000
     25992      1439  TIP3      H1             15.3864306422      -11.7260352638       23.8688975980  TIP3      1247            0.0000000000
     25993      1439  TIP3      H2             14.6688445188      -10.7539030461       22.9909594709  TIP3      1247            0.0000000000
     25994      1440  TIP3      OH2             5.0298267840       -6.9185956855       29.4626704127  TIP3      1248            0.0000000000
     25995      1440  TIP3      H1              5.7207566274       -6.9915126906       28.7747687476  TIP3      1248            0.0000000000
     25996      1440  TIP3      H2              5.0908357031       -7.7746331479       29.9227861944  TIP3      1248            0.0000000000
     25997      1441  TIP3      OH2            12.0753934641       -4.8513388278       22.8434023593  TIP3      1249            0.0000000000
     25998      1441  TIP3      H1             11.7051841608       -3.9726739138       23.0146483803  TIP3      1249            0.0000000000
     25999      1441  TIP3      H2             11.2697332211       -5.3581634821       22.7998375743  TIP3      1249            0.0000000000
     26000      1442  TIP3      OH2             2.0305518934       -8.5310045101       34.7288854447  TIP3      1250            0.0000000000
     26001      1442  TIP3      H1              2.1749183442       -8.9435439423       35.6010697607  TIP3      1250            0.0000000000
     26002      1442  TIP3      H2              1.3781790346       -9.1125146901       34.2994834873  TIP3      1250            0.0000000000
     26003      1443  TIP3      OH2             9.0385079922       -8.9534617443       36.9320173597  TIP3      1251            0.0000000000
     26004      1443  TIP3      H1              8.7503317868       -9.2143243943       36.0505586604  TIP3      1251            0.0000000000
     26005      1443  TIP3      H2              9.9705029184       -9.2619923206       36.9182348047  TIP3      1251            0.0000000000
     26006      1444  TIP3      OH2            13.7176401887       -3.6152669833       34.8634621037  TIP3      1252            0.0000000000
     26007      1444  TIP3      H1             12.7916494816       -3.4352338615       34.6302274361  TIP3      1252            0.0000000000
     26008      1444  TIP3      H2             13.6836496272       -3.3286800242       35.7947178518  TIP3      1252            0.0000000000
     26009      1445  TIP3      OH2            19.3879137945      -11.4317797793       23.2797629023  TIP3      1253            0.0000000000
     26010      1445  TIP3      H1             18.8398592486      -11.7662740546       22.5602838775  TIP3      1253            0.0000000000
     26011      1445  TIP3      H2             19.4415980389      -10.5045993138       22.9859643194  TIP3      1253            0.0000000000
     26012      1446  TIP3      OH2            19.3803981800       -5.5765963719       36.0598597041  TIP3      1254            0.0000000000
     26013      1446  TIP3      H1             18.4885725429       -5.3499228694       35.6954872561  TIP3      1254            0.0000000000
     26014      1446  TIP3      H2             19.9264222753       -5.6215357234       35.2494589847  TIP3      1254            0.0000000000
     26015      1447  TIP3      OH2            14.8880179561       -7.7890846826       30.7583182675  TIP3      1255            0.0000000000
     26016      1447  TIP3      H1             13.9466024250       -7.9974398996       30.6454376918  TIP3      1255            0.0000000000
     26017      1447  TIP3      H2             15.3167920737       -8.5527236157       30.3281513329  TIP3      1255            0.0000000000
     26018      1448  TIP3      OH2             7.4136190467       -3.4541120690       26.8669824460  TIP3      1256            0.0000000000
     26019      1448  TIP3      H1              7.9045147758       -2.6559350632       26.6120437832  TIP3      1256            0.0000000000
     26020      1448  TIP3      H2              6.5381531648       -3.2354411244       26.5204536547  TIP3      1256            0.0000000000
     26021      1449  TIP3      OH2             8.8594899520       -5.7914018597       26.4593782607  TIP3      1257            0.0000000000
     26022      1449  TIP3      H1              8.5239467819       -4.8712004981       26.4572616453  TIP3      1257            0.0000000000
     26023      1449  TIP3      H2              8.0923215962       -6.2733239810       26.8217016180  TIP3      1257            0.0000000000
     26024      1450  TIP3      OH2             9.2776576934       -1.6133501046       32.7820599419  TIP3      1258            0.0000000000
     26025      1450  TIP3      H1              9.7274262927       -0.8002867440       32.4988909775  TIP3      1258            0.0000000000
     26026      1450  TIP3      H2              9.8887740885       -1.9460344985       33.4618534067  TIP3      1258            0.0000000000
     26027      1451  TIP3      OH2             7.4943839938       -0.8154776806       26.0203096702  TIP3      1259            0.0000000000
     26028      1451  TIP3      H1              6.5314153552       -0.6458891848       26.0414252175  TIP3      1259            0.0000000000
     26029      1451  TIP3      H2              7.8668101689        0.0429123843       26.2700135798  TIP3      1259            0.0000000000
     26030      1452  TIP3      OH2            12.8010717352       -5.6055060009       32.4069615793  TIP3      1260            0.0000000000
     26031      1452  TIP3      H1             12.4697171469       -5.8003409222       33.3084396619  TIP3      1260            0.0000000000
     26032      1452  TIP3      H2             13.4407186831       -6.3163748780       32.2392679212  TIP3      1260            0.0000000000
     26033      1453  TIP3      OH2            15.6085230092       -1.0256097323       34.8982812332  TIP3      1261            0.0000000000
     26034      1453  TIP3      H1             14.9243005170       -1.5239012166       34.4116144617  TIP3      1261            0.0000000000
     26035      1453  TIP3      H2             15.7982997602       -0.3273753226       34.2366349318  TIP3      1261            0.0000000000
     26036      1454  TIP3      OH2             3.6948985303      -13.7318977725       34.3461821697  TIP3      1262            0.0000000000
     26037      1454  TIP3      H1              2.7659903061      -13.4391720433       34.2464462815  TIP3      1262            0.0000000000
     26038      1454  TIP3      H2              3.5622082558      -14.6228781010       34.7254474219  TIP3      1262            0.0000000000
     26039      1455  TIP3      OH2            15.9044655130       -5.8907106978       23.8013264212  TIP3      1263            0.0000000000
     26040      1455  TIP3      H1             15.7041734540       -6.7237181274       24.2589278068  TIP3      1263            0.0000000000
     26041      1455  TIP3      H2             16.8745839233       -5.8449551714       23.8865857131  TIP3      1263            0.0000000000
     26042      1456  TIP3      OH2             3.2916432088       -1.9863136493       32.7168433755  TIP3      1264            0.0000000000
     26043      1456  TIP3      H1              3.5810927289       -2.9103571143       32.7198333527  TIP3      1264            0.0000000000
     26044      1456  TIP3      H2              3.5514547178       -1.6986500172       33.5986191164  TIP3      1264            0.0000000000
     26045      1457  TIP3      OH2            12.4083473515      -13.9966769562       33.2363160262  TIP3      1265            0.0000000000
     26046      1457  TIP3      H1             13.1225036903      -13.9433618909       33.8819072139  TIP3      1265            0.0000000000
     26047      1457  TIP3      H2             12.0229704762      -14.8744814584       33.4358903895  TIP3      1265            0.0000000000
     26048      1458  TIP3      OH2            13.1360770326      -14.3938728980       24.3425466493  TIP3      1266            0.0000000000
     26049      1458  TIP3      H1             13.3997554168      -13.9696968252       23.5229857136  TIP3      1266            0.0000000000
     26050      1458  TIP3      H2             13.7431130696      -13.9852825637       24.9757184962  TIP3      1266            0.0000000000
     26051      1459  TIP3      OH2            10.3487932879      -12.6047927849       25.1360851775  TIP3      1267            0.0000000000
     26052      1459  TIP3      H1             11.1817267351      -12.1072065329       25.2136468858  TIP3      1267            0.0000000000
     26053      1459  TIP3      H2             10.1030596203      -12.8126955585       26.0624622046  TIP3      1267            0.0000000000
     26054      1460  TIP3      OH2            10.9107097019      -11.6634484513       34.3595533864  TIP3      1268            0.0000000000
     26055      1460  TIP3      H1             11.0425722023      -11.0830870644       35.1332128662  TIP3      1268            0.0000000000
     26056      1460  TIP3      H2             11.5909066088      -12.3467233173       34.4300741868  TIP3      1268            0.0000000000
     26057      1461  TIP3      OH2            11.2521701650      -15.5968968781       26.0904485706  TIP3      1269            0.0000000000
     26058      1461  TIP3      H1             10.9051892997      -14.9432972241       26.7154541665  TIP3      1269            0.0000000000
     26059      1461  TIP3      H2             11.9226473186      -15.0612052345       25.5988951442  TIP3      1269            0.0000000000
     26060      1462  TIP3      OH2             6.8606299678      -14.5266719569       22.8425517045  TIP3      1270            0.0000000000
     26061      1462  TIP3      H1              6.8580705521      -13.5946853615       23.1036883006  TIP3      1270            0.0000000000
     26062      1462  TIP3      H2              7.8057172433      -14.7508253864       22.9739026921  TIP3      1270            0.0000000000
     26063      1463  TIP3      OH2            17.1161643144      -13.7806989326       35.1846209935  TIP3      1271            0.0000000000
     26064      1463  TIP3      H1             16.1857877787      -13.4721291633       35.0577500519  TIP3      1271            0.0000000000
     26065      1463  TIP3      H2             17.4155019208      -13.7947985816       34.2604495778  TIP3      1271            0.0000000000
     26066      1464  TIP3      OH2            15.7262130557       -9.9951081450       29.2166696139  TIP3      1272            0.0000000000
     26067      1464  TIP3      H1             14.9095520743      -10.4402695899       28.9217176418  TIP3      1272            0.0000000000
     26068      1464  TIP3      H2             16.2058842756      -10.6917895543       29.7177655838  TIP3      1272            0.0000000000
     26069      1465  TIP3      OH2            16.7894266020       -0.7410991293       30.8700251929  TIP3      1273            0.0000000000
     26070      1465  TIP3      H1             16.6943883506       -0.0574350858       30.1783472068  TIP3      1273            0.0000000000
     26071      1465  TIP3      H2             17.7528401408       -0.6838613735       31.0449691465  TIP3      1273            0.0000000000
     26072      1466  TIP3      OH2             4.2685311400      -16.6108585267       29.6508484301  TIP3      1274            0.0000000000
     26073      1466  TIP3      H1              4.0770225296      -16.6196925008       28.6964649066  TIP3      1274            0.0000000000
     26074      1466  TIP3      H2              3.8763515409      -17.4646559711       29.9353092825  TIP3      1274            0.0000000000
     26075      1467  TIP3      OH2             3.2269141350       -2.6866757642       25.7646758865  TIP3      1275            0.0000000000
     26076      1467  TIP3      H1              2.3819600210       -2.2115158268       25.7851593214  TIP3      1275            0.0000000000
     26077      1467  TIP3      H2              3.7552426020       -2.2124387191       25.1105057378  TIP3      1275            0.0000000000
     26078      1468  TIP3      OH2             2.4486709508       -0.0452629242       37.1069002796  TIP3      1276            0.0000000000
     26079      1468  TIP3      H1              3.0437856364       -0.2478327631       37.8570963840  TIP3      1276            0.0000000000
     26080      1468  TIP3      H2              2.0300498359       -0.9056147579       36.9319105513  TIP3      1276            0.0000000000
     26081      1469  TIP3      OH2             7.1174322215       -1.1663244814       38.7216959211  TIP3      1277            0.0000000000
     26082      1469  TIP3      H1              7.9063082104       -1.6069985617       39.0385093594  TIP3      1277            0.0000000000
     26083      1469  TIP3      H2              7.0964644230       -1.3906091260       37.7688060398  TIP3      1277            0.0000000000
     26084      1470  TIP3      OH2            13.5982783575       -2.7323982832       37.4730312469  TIP3      1278            0.0000000000
     26085      1470  TIP3      H1             13.3321446671       -3.6403350740       37.7009668935  TIP3      1278            0.0000000000
     26086      1470  TIP3      H2             14.4079826851       -2.6141114107       38.0102510759  TIP3      1278            0.0000000000
     26087      1471  TIP3      OH2             2.3517542568       -6.2769930028       38.0925480240  TIP3      1279            0.0000000000
     26088      1471  TIP3      H1              2.5245568463       -7.1798978289       37.7726187172  TIP3      1279            0.0000000000
     26089      1471  TIP3      H2              1.6206383223       -6.0071018262       37.5111654870  TIP3      1279            0.0000000000
     26090      1472  TIP3      OH2             9.0941978092       -6.2861761577       37.4901640019  TIP3      1280            0.0000000000
     26091      1472  TIP3      H1              8.7402206683       -5.9787395168       36.6256504782  TIP3      1280            0.0000000000
     26092      1472  TIP3      H2              9.1668481744       -7.2609260938       37.3530089415  TIP3      1280            0.0000000000
     26093      1473  TIP3      OH2            14.7674913283       -6.4253713867       34.8768256794  TIP3      1281            0.0000000000
     26094      1473  TIP3      H1             15.5516725731       -5.8360529072       34.8055630510  TIP3      1281            0.0000000000
     26095      1473  TIP3      H2             14.0658505120       -5.7588994848       34.9156544205  TIP3      1281            0.0000000000
     26096      1474  TIP3      OH2             3.2990811847       -9.0509062711       37.4808969865  TIP3      1282            0.0000000000
     26097      1474  TIP3      H1              3.6554838500       -9.9330771554       37.4247462652  TIP3      1282            0.0000000000
     26098      1474  TIP3      H2              3.0328935086       -9.0112127161       38.4244453612  TIP3      1282            0.0000000000
     26099      1475  TIP3      OH2             7.1362533257      -10.0802561690       34.8206485399  TIP3      1283            0.0000000000
     26100      1475  TIP3      H1              6.6358504531       -9.2831813336       35.0814803421  TIP3      1283            0.0000000000
     26101      1475  TIP3      H2              7.5966110997       -9.7218582638       34.0271477049  TIP3      1283            0.0000000000
     26102      1476  TIP3      OH2            12.2418997514       -7.4955999244       38.2922557421  TIP3      1284            0.0000000000
     26103      1476  TIP3      H1             13.1779026727       -7.5619758964       38.0308865350  TIP3      1284            0.0000000000
     26104      1476  TIP3      H2             12.0847336789       -8.3363617163       38.7552806784  TIP3      1284            0.0000000000
     26105      1477  TIP3      OH2             7.5290901195      -12.7120646001       35.8443559503  TIP3      1285            0.0000000000
     26106      1477  TIP3      H1              7.7530735534      -13.4685684775       35.2539298108  TIP3      1285            0.0000000000
     26107      1477  TIP3      H2              7.7341256741      -11.9314433863       35.2975367556  TIP3      1285            0.0000000000
     26108      1478  TIP3      OH2             7.9612620790      -14.2949534113       33.4633052123  TIP3      1286            0.0000000000
     26109      1478  TIP3      H1              8.5003594895      -13.8911785568       32.7382256207  TIP3      1286            0.0000000000
     26110      1478  TIP3      H2              7.0961916589      -14.4401312720       33.0145259958  TIP3      1286            0.0000000000
     26111      1479  TIP3      OH2             9.5045673161       -8.8707220747       33.6685953659  TIP3      1287            0.0000000000
     26112      1479  TIP3      H1             10.2823194706       -9.0137867173       33.1143410817  TIP3      1287            0.0000000000
     26113      1479  TIP3      H2              9.1724290877       -8.0136508512       33.3536376468  TIP3      1287            0.0000000000
     26114      1480  TIP3      OH2            13.9202746763      -11.1084376071       38.6504207868  TIP3      1288            0.0000000000
     26115      1480  TIP3      H1             14.1410902501      -12.0486262739       38.5694523216  TIP3      1288            0.0000000000
     26116      1480  TIP3      H2             14.7910528787      -10.6795993720       38.6627169795  TIP3      1288            0.0000000000
     26117      1481  TIP3      OH2            15.2592967197       -8.3005971322       36.8303721525  TIP3      1289            0.0000000000
     26118      1481  TIP3      H1             15.0047172786       -7.5869952428       36.2041810350  TIP3      1289            0.0000000000
     26119      1481  TIP3      H2             16.2137477019       -8.3437315500       36.6116929916  TIP3      1289            0.0000000000
     26120      1482  TIP3      OH2             6.0058386234      -11.4491515390       37.7891137566  TIP3      1290            0.0000000000
     26121      1482  TIP3      H1              5.2611304593      -12.0910465361       37.7399625823  TIP3      1290            0.0000000000
     26122      1482  TIP3      H2              6.7423106304      -11.8751304527       37.3057592171  TIP3      1290            0.0000000000
     26123      1483  TIP3      OH2             8.7626175007      -16.9069969115       33.8491698330  TIP3      1291            0.0000000000
     26124      1483  TIP3      H1              8.6125562610      -15.9445959579       33.7363587335  TIP3      1291            0.0000000000
     26125      1483  TIP3      H2              8.0159990840      -17.2664684344       33.3378242660  TIP3      1291            0.0000000000
     26126      1484  TIP3      OH2            10.0207693495      -12.5518425966       37.4665828174  TIP3      1292            0.0000000000
     26127      1484  TIP3      H1              9.7469050313      -12.8013842499       38.3704552478  TIP3      1292            0.0000000000
     26128      1484  TIP3      H2              9.2544673452      -12.7924336076       36.9215655328  TIP3      1292            0.0000000000
     26129      1485  TIP3      OH2            12.7576498577      -13.4381478149       36.5257633733  TIP3      1293            0.0000000000
     26130      1485  TIP3      H1             11.7977162796      -13.3815302085       36.6594514438  TIP3      1293            0.0000000000
     26131      1485  TIP3      H2             13.0343705824      -14.0652873914       37.2205290337  TIP3      1293            0.0000000000
     26132      1486  TIP3      OH2            14.3202250287      -14.8031600311       38.4551327187  TIP3      1294            0.0000000000
     26133      1486  TIP3      H1             14.2939627469      -15.7798343588       38.4868675122  TIP3      1294            0.0000000000
     26134      1486  TIP3      H2             14.0767728565      -14.5135514989       39.3663057959  TIP3      1294            0.0000000000
     26135      1487  TIP3      OH2             4.1848639543      -13.5180651797       37.5409351197  TIP3      1295            0.0000000000
     26136      1487  TIP3      H1              4.3508542486      -14.3072098116       36.9862570603  TIP3      1295            0.0000000000
     26137      1487  TIP3      H2              4.0382533775      -13.9586455346       38.4163333719  TIP3      1295            0.0000000000
     26138      1488  TIP3      OH2             8.9854571127      -17.5235172000       36.5371734632  TIP3      1296            0.0000000000
     26139      1488  TIP3      H1              9.6662376444      -18.2286326758       36.5146305424  TIP3      1296            0.0000000000
     26140      1488  TIP3      H2              8.8769691059      -17.3586230939       35.5813695679  TIP3      1296            0.0000000000
     26141      1489  TIP3      OH2             9.3404579458      -15.9146454011       38.6316960669  TIP3      1297            0.0000000000
     26142      1489  TIP3      H1              9.1761931930      -16.4096020775       37.7920674456  TIP3      1297            0.0000000000
     26143      1489  TIP3      H2              8.7610197604      -15.1390911320       38.5369431598  TIP3      1297            0.0000000000
     26144      1490  TIP3      OH2             1.1260737962        1.0040770768       26.2818595427  TIP3      1298            0.0000000000
     26145      1490  TIP3      H1              0.4542517517        0.5034143876       25.7705887338  TIP3      1298            0.0000000000
     26146      1490  TIP3      H2              1.4318823118        0.3258195027       26.9078973097  TIP3      1298            0.0000000000
     26147      1491  TIP3      OH2             1.9690060955       -0.9001617887       28.1204112038  TIP3      1299            0.0000000000
     26148      1491  TIP3      H1              1.6214583159       -1.7785093424       28.3308970631  TIP3      1299            0.0000000000
     26149      1491  TIP3      H2              2.1895067630       -0.5612716190       29.0087936616  TIP3      1299            0.0000000000
     26150      1492  TIP3      OH2            19.5075043606       -0.0963150237       31.0606397927  TIP3      1300            0.0000000000
     26151      1492  TIP3      H1             19.5269312796        0.0628504775       32.0193658586  TIP3      1300            0.0000000000
     26152      1492  TIP3      H2             20.2138466618        0.4865441943       30.7625965490  TIP3      1300            0.0000000000
     26153      1493  TIP3      OH2            19.0822137162       -0.4987192594       34.0108428847  TIP3      1301            0.0000000000
     26154      1493  TIP3      H1             18.6105355450       -1.2711019531       33.6282103270  TIP3      1301            0.0000000000
     26155      1493  TIP3      H2             19.5782075601       -0.9451724471       34.7177352560  TIP3      1301            0.0000000000
     26156      1494  TIP3      OH2            17.5367235879       -4.7887395041       38.6724970110  TIP3      1302            0.0000000000
     26157      1494  TIP3      H1             16.6427123482       -4.8047070995       39.0605714022  TIP3      1302            0.0000000000
     26158      1494  TIP3      H2             17.9049830327       -3.9818018210       39.0958014376  TIP3      1302            0.0000000000
     26159      1495  TIP3      OH2            18.8332296961       -6.4501730023       24.1468548216  TIP3      1303            0.0000000000
     26160      1495  TIP3      H1             19.7073231932       -6.0690599426       24.2792955758  TIP3      1303            0.0000000000
     26161      1495  TIP3      H2             18.8611220503       -7.1965225235       24.7689705010  TIP3      1303            0.0000000000
     26162      1496  TIP3      OH2            19.2156793865       -8.4084539279       25.9709098649  TIP3      1304            0.0000000000
     26163      1496  TIP3      H1             18.4575751501       -8.8784898667       26.3797423350  TIP3      1304            0.0000000000
     26164      1496  TIP3      H2             19.8018231333       -8.2413148156       26.7325328388  TIP3      1304            0.0000000000
     26165      1497  TIP3      OH2            18.9613819831       -5.6757064698       30.9826448670  TIP3      1305            0.0000000000
     26166      1497  TIP3      H1             19.7804290608       -6.0480875340       30.6095628189  TIP3      1305            0.0000000000
     26167      1497  TIP3      H2             19.1046495313       -4.7203671668       30.8166041185  TIP3      1305            0.0000000000
     26168      1498  TIP3      OH2            17.5174193759       -2.7716371695       33.2549163763  TIP3      1306            0.0000000000
     26169      1498  TIP3      H1             16.8263353908       -2.4308937406       33.8457382074  TIP3      1306            0.0000000000
     26170      1498  TIP3      H2             16.9687911830       -3.1764043078       32.5491388914  TIP3      1306            0.0000000000
     26171      1499  TIP3      OH2            17.0063498183       -9.8966714657       26.5538539501  TIP3      1307            0.0000000000
     26172      1499  TIP3      H1             16.8688726162      -10.8534708364       26.5275744908  TIP3      1307            0.0000000000
     26173      1499  TIP3      H2             16.6845994206       -9.6721298646       27.4413768677  TIP3      1307            0.0000000000
     26174      1500  TIP3      OH2             2.0252546487       -7.8150147688       30.6183525578  TIP3      1308            0.0000000000
     26175      1500  TIP3      H1              2.1995808527       -7.8907897426       29.6560457000  TIP3      1308            0.0000000000
     26176      1500  TIP3      H2              2.9213048352       -7.9851361380       30.9769919465  TIP3      1308            0.0000000000
     26177      1501  TIP3      OH2            17.8748401102       -7.9282942291       36.2729165381  TIP3      1309            0.0000000000
     26178      1501  TIP3      H1             18.4901948435       -8.6858587018       36.3842055322  TIP3      1309            0.0000000000
     26179      1501  TIP3      H2             18.4814750323       -7.1574499636       36.2518860719  TIP3      1309            0.0000000000
     26180      1502  TIP3      OH2            19.3795865898      -10.0477425211       36.9231792628  TIP3      1310            0.0000000000
     26181      1502  TIP3      H1             18.5029581408      -10.4489651111       36.7410200589  TIP3      1310            0.0000000000
     26182      1502  TIP3      H2             19.9578792697      -10.8221554554       36.8303818810  TIP3      1310            0.0000000000
     26183      1503  TIP3      OH2            16.7040522423      -12.3269105709       25.0503698806  TIP3      1311            0.0000000000
     26184      1503  TIP3      H1             17.0038245448      -13.2572710111       25.1442910272  TIP3      1311            0.0000000000
     26185      1503  TIP3      H2             17.4761681878      -11.9143855017       24.6187408226  TIP3      1311            0.0000000000
     26186      1504  TIP3      OH2            17.3283830430      -11.7709995013       30.4672088396  TIP3      1312            0.0000000000
     26187      1504  TIP3      H1             18.2886405612      -11.5386007003       30.4518850720  TIP3      1312            0.0000000000
     26188      1504  TIP3      H2             17.1379796167      -11.6310216145       31.4070988816  TIP3      1312            0.0000000000
     26189      1505  TIP3      OH2            17.3952763627      -11.0508498940       33.2463271218  TIP3      1313            0.0000000000
     26190      1505  TIP3      H1             16.5168611138      -10.7612582919       33.5760539659  TIP3      1313            0.0000000000
     26191      1505  TIP3      H2             17.8283687325      -10.1898453186       33.0270191890  TIP3      1313            0.0000000000
     26192      1506  TIP3      OH2             1.6611759361      -12.5263226095       36.7540481645  TIP3      1314            0.0000000000
     26193      1506  TIP3      H1              2.5792511945      -12.7409563041       36.9936784663  TIP3      1314            0.0000000000
     26194      1506  TIP3      H2              1.1766235666      -13.3259884702       37.0674351364  TIP3      1314            0.0000000000
     26195      1507  TIP3      OH2            19.6775864340      -16.9962842795       38.5788054208  TIP3      1315            0.0000000000
     26196      1507  TIP3      H1             20.0228242742      -17.6690030902       37.9738994831  TIP3      1315            0.0000000000
     26197      1507  TIP3      H2             19.7785631416      -16.1748173624       38.0623171908  TIP3      1315            0.0000000000
     26198      1508  TIP3      OH2            17.3641949302      -15.0392599563       25.0724574108  TIP3      1316            0.0000000000
     26199      1508  TIP3      H1             17.5449833749      -15.4883123363       25.9221193596  TIP3      1316            0.0000000000
     26200      1508  TIP3      H2             16.7270252276      -15.6392698100       24.6227552655  TIP3      1316            0.0000000000
     26201      1509  TIP3      OH2             2.8717846959      -14.2242355540       29.5644108167  TIP3      1317            0.0000000000
     26202      1509  TIP3      H1              3.2947503073      -15.0428200908       29.9018357758  TIP3      1317            0.0000000000
     26203      1509  TIP3      H2              3.3715232963      -13.5367134319       30.0401701369  TIP3      1317            0.0000000000
     26204      1510  TIP3      OH2             1.1349690498      -11.2363660676       30.6634681942  TIP3      1318            0.0000000000
     26205      1510  TIP3      H1              1.6988499789      -11.4593225215       29.9009294515  TIP3      1318            0.0000000000
     26206      1510  TIP3      H2              1.5807027324      -10.4184575447       30.9307754790  TIP3      1318            0.0000000000
     26207      1511  TIP3      OH2            19.1928944801      -14.8917160462       36.9512886695  TIP3      1319            0.0000000000
     26208      1511  TIP3      H1             18.2507829157      -14.6241856415       36.9108872742  TIP3      1319            0.0000000000
     26209      1511  TIP3      H2             19.2251668131      -15.4374706082       36.1500367350  TIP3      1319            0.0000000000
     26210      1512  TIP3      OH2             1.4899851472      -14.8688673582       24.7127026687  TIP3      1320            0.0000000000
     26211      1512  TIP3      H1              0.5152794026      -14.8492226910       24.5669249722  TIP3      1320            0.0000000000
     26212      1512  TIP3      H2              1.8253284922      -14.5565204064       23.8664422819  TIP3      1320            0.0000000000
     26213      1513  TIP3      OH2            16.2328112682       -0.0085325423       26.7011322461  TIP3      1321            0.0000000000
     26214      1513  TIP3      H1             16.9106011694       -0.3132926167       26.0749770279  TIP3      1321            0.0000000000
     26215      1513  TIP3      H2             16.7568271964        0.4946998531       27.3373357217  TIP3      1321            0.0000000000
     26216      1514  TIP3      OH2             1.4480538731      -16.3020251224       33.0407510185  TIP3      1322            0.0000000000
     26217      1514  TIP3      H1              0.7764759322      -16.4998850945       33.7175392693  TIP3      1322            0.0000000000
     26218      1514  TIP3      H2              0.9866197708      -15.6319874030       32.4964873529  TIP3      1322            0.0000000000
     26219      1515  TIP3      OH2             3.6807718175       -3.0931104360       37.2099478682  TIP3      1323            0.0000000000
     26220      1515  TIP3      H1              2.8377900662       -2.8876521793       36.7751952366  TIP3      1323            0.0000000000
     26221      1515  TIP3      H2              3.4095841121       -3.1602442777       38.1328716266  TIP3      1323            0.0000000000
     26222      1516  TIP3      OH2             6.5814439380       -2.1058420412       33.4814873257  TIP3      1324            0.0000000000
     26223      1516  TIP3      H1              6.2419401486       -1.2429507196       33.2029935457  TIP3      1324            0.0000000000
     26224      1516  TIP3      H2              7.5067135930       -2.0140761399       33.1707609800  TIP3      1324            0.0000000000
     26225      1517  TIP3      OH2            10.9004244414       -0.6722630522       36.3812173307  TIP3      1325            0.0000000000
     26226      1517  TIP3      H1             11.0475291940       -1.0129646940       37.2945265603  TIP3      1325            0.0000000000
     26227      1517  TIP3      H2             11.8030370848       -0.3769028396       36.1444170819  TIP3      1325            0.0000000000
     26228      1518  TIP3      OH2            13.1928012080        0.5885518317       35.6900579064  TIP3      1326            0.0000000000
     26229      1518  TIP3      H1             13.9243908217        0.0008328453       35.4516858755  TIP3      1326            0.0000000000
     26230      1518  TIP3      H2             13.5698206613        1.0213699666       36.4856049908  TIP3      1326            0.0000000000
     26231      1519  TIP3      OH2            18.2054005782      -16.7997766542       34.7967056904  TIP3      1327            0.0000000000
     26232      1519  TIP3      H1             17.3775790978      -16.5005105553       34.3826773256  TIP3      1327            0.0000000000
     26233      1519  TIP3      H2             18.3786458677      -17.6160520831       34.2712330850  TIP3      1327            0.0000000000
     26234      1520  TIP3      OH2             4.0079398875        1.1339248005       33.4760980730  TIP3      1328            0.0000000000
     26235      1520  TIP3      H1              3.2768752458        1.6310676396       33.0764734983  TIP3      1328            0.0000000000
     26236      1520  TIP3      H2              3.6890286253        0.9386759472       34.3691114517  TIP3      1328            0.0000000000
     26237      1521  TIP3      OH2             6.4804985532        0.7088778501       32.5492559855  TIP3      1329            0.0000000000
     26238      1521  TIP3      H1              5.5869914172        0.8516321043       32.9436096524  TIP3      1329            0.0000000000
     26239      1521  TIP3      H2              6.4207770072        1.2986624432       31.7727866658  TIP3      1329            0.0000000000
     26240      1522  TIP3      OH2            11.1815897798        0.6244267095       31.7204417802  TIP3      1330            0.0000000000
     26241      1522  TIP3      H1             10.7196126623        1.1798704293       31.0698912443  TIP3      1330            0.0000000000
     26242      1522  TIP3      H2             11.3180483734        1.2614993272       32.4555722358  TIP3      1330            0.0000000000
     26243      1523  TIP3      OH2            13.4764988572       -0.5579906078       32.7337784954  TIP3      1331            0.0000000000
     26244      1523  TIP3      H1             12.6141345069       -0.2897236683       32.3773787345  TIP3      1331            0.0000000000
     26245      1523  TIP3      H2             13.9505966872        0.2869533976       32.6431225342  TIP3      1331            0.0000000000
     26246      1524  TIP3      OH2            16.0575406432        1.0122872022       32.9694168270  TIP3      1332            0.0000000000
     26247      1524  TIP3      H1             15.9878127670        1.9711805123       32.7408143041  TIP3      1332            0.0000000000
     26248      1524  TIP3      H2             16.2700551011        0.6407906512       32.0908984022  TIP3      1332            0.0000000000
     26249      1525  TIP3      OH2             3.4562273117       -0.2151992340       30.4173623285  TIP3      1333            0.0000000000
     26250      1525  TIP3      H1              3.3832966976       -0.6729381871       31.2809610722  TIP3      1333            0.0000000000
     26251      1525  TIP3      H2              4.2739000926       -0.5894152266       30.0251134520  TIP3      1333            0.0000000000
     26252      1526  TIP3      OH2             5.5309131826       -1.5024769560       29.0854616677  TIP3      1334            0.0000000000
     26253      1526  TIP3      H1              5.3737451021       -2.4407062364       29.2986177842  TIP3      1334            0.0000000000
     26254      1526  TIP3      H2              6.3986560089       -1.3544587496       29.5176539391  TIP3      1334            0.0000000000
     26255      1527  TIP3      OH2             8.1400810593       -1.0158556606       29.9561557212  TIP3      1335            0.0000000000
     26256      1527  TIP3      H1              8.2973376892       -1.9340305510       29.6663425719  TIP3      1335            0.0000000000
     26257      1527  TIP3      H2              8.1761241237       -1.0966878488       30.9193301189  TIP3      1335            0.0000000000
     26258      1528  TIP3      OH2            11.5973731772      -15.3579198250       29.0628896709  TIP3      1336            0.0000000000
     26259      1528  TIP3      H1             10.9291617240      -16.0021171124       29.3565579485  TIP3      1336            0.0000000000
     26260      1528  TIP3      H2             12.1512666683      -15.9018925017       28.4952016827  TIP3      1336            0.0000000000
     26261      1529  TIP3      OH2            16.7327363952      -17.3163150444       29.1562698043  TIP3      1337            0.0000000000
     26262      1529  TIP3      H1             17.3480559640      -16.7266966102       28.6531687204  TIP3      1337            0.0000000000
     26263      1529  TIP3      H2             15.8525530016      -16.9619800071       28.9134142858  TIP3      1337            0.0000000000
     26264      1530  TIP3      OH2            18.4026657654      -16.0844292144       27.4301952529  TIP3      1338            0.0000000000
     26265      1530  TIP3      H1             19.1002887546      -16.6493572409       27.0309078023  TIP3      1338            0.0000000000
     26266      1530  TIP3      H2             18.8908477756      -15.2398584141       27.5762637822  TIP3      1338            0.0000000000
     26267      1531  TIP3      OH2             3.9582791093      -16.6987887545       26.8660238230  TIP3      1339            0.0000000000
     26268      1531  TIP3      H1              3.1432946730      -16.9956467917       26.4262886726  TIP3      1339            0.0000000000
     26269      1531  TIP3      H2              4.4341409935      -17.5607760068       26.9179140169  TIP3      1339            0.0000000000
     26270      1532  TIP3      OH2             8.4359332825      -16.8268753583       26.7252691239  TIP3      1340            0.0000000000
     26271      1532  TIP3      H1              9.3383046506      -16.4633750459       26.6415740329  TIP3      1340            0.0000000000
     26272      1532  TIP3      H2              8.4106530312      -17.0370390852       27.6577767499  TIP3      1340            0.0000000000
     26273      1533  TIP3      OH2            14.1390065226      -16.7991544402       28.3507942227  TIP3      1341            0.0000000000
     26274      1533  TIP3      H1             14.1034147467      -16.6934139648       27.3898944348  TIP3      1341            0.0000000000
     26275      1533  TIP3      H2             13.7690159188      -17.7080357750       28.4730660326  TIP3      1341            0.0000000000
     26276      1534  TIP3      OH2            15.4301713168      -16.7776540184       24.0315193958  TIP3      1342            0.0000000000
     26277      1534  TIP3      H1             14.7031195573      -16.1692489575       23.8406259805  TIP3      1342            0.0000000000
     26278      1534  TIP3      H2             14.9681715231      -17.6305535339       24.2148960377  TIP3      1342            0.0000000000
     26279      1535  TIP3      OH2             4.6013278421      -15.0862845996       21.2677164144  TIP3      1343            0.0000000000
     26280      1535  TIP3      H1              5.0404052389      -15.5921834490       20.5731418968  TIP3      1343            0.0000000000
     26281      1535  TIP3      H2              5.3347821282      -14.6920354015       21.7480301308  TIP3      1343            0.0000000000
     26282      1536  TIP3      OH2             9.5599265328      -14.7795017752       23.5793646642  TIP3      1344            0.0000000000
     26283      1536  TIP3      H1              9.8457071809      -15.3775067461       24.2828813839  TIP3      1344            0.0000000000
     26284      1536  TIP3      H2              9.6533705424      -13.9291183292       24.0411519374  TIP3      1344            0.0000000000
     26285      1537  TIP3      OH2            11.5492557172        0.2422229504       22.0144080453  TIP3      1345            0.0000000000
     26286      1537  TIP3      H1             12.3991648134        0.5935115182       21.7832622996  TIP3      1345            0.0000000000
     26287      1537  TIP3      H2             11.2167537529       -0.2328640972       21.2097367542  TIP3      1345            0.0000000000
     26288      1538  TIP3      OH2            18.1691830328       -0.2247300626       24.6995660021  TIP3      1346            0.0000000000
     26289      1538  TIP3      H1             18.0489223233       -0.9950185197       24.1130064500  TIP3      1346            0.0000000000
     26290      1538  TIP3      H2             18.1989205478        0.5129246307       24.0769961253  TIP3      1346            0.0000000000
     26291      1539  TIP3      OH2             3.8576181042      -16.1939581554       36.3852436291  TIP3      1347            0.0000000000
     26292      1539  TIP3      H1              3.4693148845      -16.9920364320       36.7971467017  TIP3      1347            0.0000000000
     26293      1539  TIP3      H2              4.7701821154      -16.2621123828       36.7552081880  TIP3      1347            0.0000000000
     26294      1540  TIP3      OH2             5.8548268338      -16.7986120155       38.0190442678  TIP3      1348            0.0000000000
     26295      1540  TIP3      H1              6.7363789624      -17.1533964600       37.7806204261  TIP3      1348            0.0000000000
     26296      1540  TIP3      H2              5.4806293422      -17.6060345796       38.4314324076  TIP3      1348            0.0000000000
     26297      1541  TIP3      OH2            14.2623822973      -17.5264393957       38.1733270631  TIP3      1349            0.0000000000
     26298      1541  TIP3      H1             14.3591173658      -18.0063813304       39.0171997100  TIP3      1349            0.0000000000
     26299      1541  TIP3      H2             15.1777450814      -17.5594362112       37.8252415320  TIP3      1349            0.0000000000
     26300      1542  TIP3      OH2            17.4638970283       -1.4868692966       36.8380420854  TIP3      1350            0.0000000000
     26301      1542  TIP3      H1             16.6711307021       -1.6259749189       36.2748686871  TIP3      1350            0.0000000000
     26302      1542  TIP3      H2             17.3601865950       -0.5323876932       37.0231255121  TIP3      1350            0.0000000000
     26303      1543  TIP3      OH2            31.9017078095       -7.6149558979       26.8238647230  TIP3      1351            0.0000000000
     26304      1543  TIP3      H1             31.9251622986       -6.6336054912       26.7512481247  TIP3      1351            0.0000000000
     26305      1543  TIP3      H2             31.1993832441       -7.8395121810       26.1958307890  TIP3      1351            0.0000000000
     26306      1544  TIP3      OH2            30.7680414252       -8.3478004864       30.2898197976  TIP3      1352            0.0000000000
     26307      1544  TIP3      H1             30.7519644222       -8.9977525442       31.0049106624  TIP3      1352            0.0000000000
     26308      1544  TIP3      H2             30.4480303625       -8.8560876475       29.5268802212  TIP3      1352            0.0000000000
     26309      1545  TIP3      OH2            23.1238550339       -8.6776263766       31.8435150868  TIP3      1353            0.0000000000
     26310      1545  TIP3      H1             23.2066514305       -9.3587039957       32.5443421211  TIP3      1353            0.0000000000
     26311      1545  TIP3      H2             23.8706044693       -8.1028633060       32.0642225989  TIP3      1353            0.0000000000
     26312      1546  TIP3      OH2            34.4799212916       -5.4202934352       28.5829087859  TIP3      1354            0.0000000000
     26313      1546  TIP3      H1             34.0515712589       -6.1301908315       29.0694763848  TIP3      1354            0.0000000000
     26314      1546  TIP3      H2             34.4801455320       -4.7000688072       29.2348269581  TIP3      1354            0.0000000000
     26315      1547  TIP3      OH2            24.0501226064       -4.2302668167       30.3518143587  TIP3      1355            0.0000000000
     26316      1547  TIP3      H1             23.7341326959       -5.0941318125       30.0245273763  TIP3      1355            0.0000000000
     26317      1547  TIP3      H2             25.0055028715       -4.4149337949       30.3967011564  TIP3      1355            0.0000000000
     26318      1548  TIP3      OH2            20.6918386243      -10.6710972642       25.8560347167  TIP3      1356            0.0000000000
     26319      1548  TIP3      H1             20.2689973563       -9.7906865706       25.7887916530  TIP3      1356            0.0000000000
     26320      1548  TIP3      H2             20.1358302053      -11.1895623665       25.2531885567  TIP3      1356            0.0000000000
     26321      1549  TIP3      OH2            21.3932036549       -8.4448163943       27.9598951987  TIP3      1357            0.0000000000
     26322      1549  TIP3      H1             21.6617553835       -9.2599976498       28.4229377762  TIP3      1357            0.0000000000
     26323      1549  TIP3      H2             22.1087118883       -8.3336466507       27.3164061552  TIP3      1357            0.0000000000
     26324      1550  TIP3      OH2            31.5891019169       -0.2417521684       28.8077494242  TIP3      1358            0.0000000000
     26325      1550  TIP3      H1             32.2237121621       -0.9466804091       28.5283721354  TIP3      1358            0.0000000000
     26326      1550  TIP3      H2             31.3538571327       -0.5695894466       29.6786056862  TIP3      1358            0.0000000000
     26327      1551  TIP3      OH2            29.1499065292       -5.9463526856       30.7530663065  TIP3      1359            0.0000000000
     26328      1551  TIP3      H1             29.4852693324       -6.5792246840       30.1000678704  TIP3      1359            0.0000000000
     26329      1551  TIP3      H2             29.9528353045       -5.7918640180       31.2784120013  TIP3      1359            0.0000000000
     26330      1552  TIP3      OH2            32.3199709898      -11.4756381123       31.0637930140  TIP3      1360            0.0000000000
     26331      1552  TIP3      H1             32.4854497772      -12.4358691588       31.0546618576  TIP3      1360            0.0000000000
     26332      1552  TIP3      H2             32.2202217042      -11.3295691021       30.1032610551  TIP3      1360            0.0000000000
     26333      1553  TIP3      OH2            25.4354865843      -13.3973943727       28.2833587374  TIP3      1361            0.0000000000
     26334      1553  TIP3      H1             25.5246505544      -12.5500563316       27.8159559593  TIP3      1361            0.0000000000
     26335      1553  TIP3      H2             25.0176693667      -13.9701639043       27.6074167772  TIP3      1361            0.0000000000
     26336      1554  TIP3      OH2            33.1979364388      -13.2907196966       26.6583992357  TIP3      1362            0.0000000000
     26337      1554  TIP3      H1             33.8359670037      -13.6187213680       27.3417688847  TIP3      1362            0.0000000000
     26338      1554  TIP3      H2             33.7682560644      -12.7365728328       26.1217184900  TIP3      1362            0.0000000000
     26339      1555  TIP3      OH2            22.0537189591      -10.9818170456       29.0321605013  TIP3      1363            0.0000000000
     26340      1555  TIP3      H1             22.7248782606      -11.5316362205       29.4787694648  TIP3      1363            0.0000000000
     26341      1555  TIP3      H2             22.1474506007      -11.2911285343       28.1207019802  TIP3      1363            0.0000000000
     26342      1556  TIP3      OH2            27.2135476634       -9.4340584628       28.3251821963  TIP3      1364            0.0000000000
     26343      1556  TIP3      H1             27.8813179162      -10.0040660367       28.7465565806  TIP3      1364            0.0000000000
     26344      1556  TIP3      H2             26.6877459963      -10.1003108046       27.8438104295  TIP3      1364            0.0000000000
     26345      1557  TIP3      OH2            24.3295862593      -14.4931554883       32.3331966087  TIP3      1365            0.0000000000
     26346      1557  TIP3      H1             24.0519562903      -13.9228096750       31.5863144151  TIP3      1365            0.0000000000
     26347      1557  TIP3      H2             23.6506131619      -14.2624575616       33.0125292232  TIP3      1365            0.0000000000
     26348      1558  TIP3      OH2            31.6176986485       -5.0241863095       25.9108295624  TIP3      1366            0.0000000000
     26349      1558  TIP3      H1             31.3507313725       -5.2827140705       25.0231564479  TIP3      1366            0.0000000000
     26350      1558  TIP3      H2             31.3149027979       -4.0942603558       25.9594970341  TIP3      1366            0.0000000000
     26351      1559  TIP3      OH2            26.8511763265       -6.8490703479       32.5767801581  TIP3      1367            0.0000000000
     26352      1559  TIP3      H1             26.1418299576       -6.2057151282       32.7845628101  TIP3      1367            0.0000000000
     26353      1559  TIP3      H2             27.5556627433       -6.2504886225       32.2857915528  TIP3      1367            0.0000000000
     26354      1560  TIP3      OH2            34.6766475212      -13.9884107617       28.7770970107  TIP3      1368            0.0000000000
     26355      1560  TIP3      H1             34.7122590049      -14.8145644229       29.2610531953  TIP3      1368            0.0000000000
     26356      1560  TIP3      H2             35.4568439931      -13.5325361245       29.1648749873  TIP3      1368            0.0000000000
     26357      1561  TIP3      OH2            23.8988597231      -12.6345388217       30.3544723209  TIP3      1369            0.0000000000
     26358      1561  TIP3      H1             24.5282718093      -11.9500158580       30.6740253324  TIP3      1369            0.0000000000
     26359      1561  TIP3      H2             24.4234153657      -13.0496266858       29.6246242201  TIP3      1369            0.0000000000
     26360      1562  TIP3      OH2            25.2955939428       -4.8502743430       33.3965929733  TIP3      1370            0.0000000000
     26361      1562  TIP3      H1             25.2497793742       -3.9385105403       33.0524989645  TIP3      1370            0.0000000000
     26362      1562  TIP3      H2             24.4111350414       -4.9259089741       33.8362018401  TIP3      1370            0.0000000000
     26363      1563  TIP3      OH2            21.3694302656       -5.2278291903       24.1495104845  TIP3      1371            0.0000000000
     26364      1563  TIP3      H1             21.0928547937       -4.8807903950       23.2776352495  TIP3      1371            0.0000000000
     26365      1563  TIP3      H2             21.4313463197       -4.3945506084       24.6556286377  TIP3      1371            0.0000000000
     26366      1564  TIP3      OH2            34.7910190389       -3.6326364315       31.0287718982  TIP3      1372            0.0000000000
     26367      1564  TIP3      H1             33.8367976209       -3.4248499680       31.0784387363  TIP3      1372            0.0000000000
     26368      1564  TIP3      H2             35.1806594313       -2.7829896342       30.7404831047  TIP3      1372            0.0000000000
     26369      1565  TIP3      OH2            35.1045525358      -15.1598510173       32.0903807028  TIP3      1373            0.0000000000
     26370      1565  TIP3      H1             34.4216147101      -14.4744854329       32.2092519415  TIP3      1373            0.0000000000
     26371      1565  TIP3      H2             35.8752342286      -14.6812703094       31.7665041602  TIP3      1373            0.0000000000
     26372      1566  TIP3      OH2            28.2830835153      -17.1675397588       29.8034239096  TIP3      1374            0.0000000000
     26373      1566  TIP3      H1             28.1414406620      -18.1318057086       29.7294762220  TIP3      1374            0.0000000000
     26374      1566  TIP3      H2             27.4024971118      -16.8512512118       30.0936738819  TIP3      1374            0.0000000000
     26375      1567  TIP3      OH2            33.1620705993       -1.8393785641       27.5498190939  TIP3      1375            0.0000000000
     26376      1567  TIP3      H1             33.6673124495       -2.5181833791       27.0573885288  TIP3      1375            0.0000000000
     26377      1567  TIP3      H2             33.6040646056       -1.0357946221       27.1899146424  TIP3      1375            0.0000000000
     26378      1568  TIP3      OH2            34.4300156084       -3.8615137227       26.0756494721  TIP3      1376            0.0000000000
     26379      1568  TIP3      H1             34.1896964151       -4.5705393479       25.4490099812  TIP3      1376            0.0000000000
     26380      1568  TIP3      H2             34.4980832015       -4.3763675740       26.9044229484  TIP3      1376            0.0000000000
     26381      1569  TIP3      OH2            35.8206318025       -5.1269353545       34.6551855172  TIP3      1377            0.0000000000
     26382      1569  TIP3      H1             36.0955937947       -5.8182175006       34.0243386486  TIP3      1377            0.0000000000
     26383      1569  TIP3      H2             36.2327071685       -4.3687825902       34.2033917367  TIP3      1377            0.0000000000
     26384      1570  TIP3      OH2            30.5552820501       -8.3356699921       24.3265901929  TIP3      1378            0.0000000000
     26385      1570  TIP3      H1             29.8819284078       -7.7581482555       23.9242241138  TIP3      1378            0.0000000000
     26386      1570  TIP3      H2             31.2724260749       -8.2760121697       23.6584165690  TIP3      1378            0.0000000000
     26387      1571  TIP3      OH2            33.9928882412       -8.1275395596       25.2188666904  TIP3      1379            0.0000000000
     26388      1571  TIP3      H1             33.2617815397       -7.9065109323       25.8375264375  TIP3      1379            0.0000000000
     26389      1571  TIP3      H2             34.4664255821       -8.7970176030       25.7595838787  TIP3      1379            0.0000000000
     26390      1572  TIP3      OH2            33.9573087530       -9.9799180309       34.3234113286  TIP3      1380            0.0000000000
     26391      1572  TIP3      H1             33.9199206174       -9.1807414904       34.8730340898  TIP3      1380            0.0000000000
     26392      1572  TIP3      H2             33.3168308561       -9.7058271870       33.6396127622  TIP3      1380            0.0000000000
     26393      1573  TIP3      OH2            25.6272144770       -7.4972339323       27.1391361023  TIP3      1381            0.0000000000
     26394      1573  TIP3      H1             25.3162195254       -7.8728883705       26.2830640963  TIP3      1381            0.0000000000
     26395      1573  TIP3      H2             26.2415181744       -8.1875407259       27.4799296882  TIP3      1381            0.0000000000
     26396      1574  TIP3      OH2            26.9523014978       -4.1092160663       29.8260091731  TIP3      1382            0.0000000000
     26397      1574  TIP3      H1             26.9367427614       -4.6411210640       29.0220978370  TIP3      1382            0.0000000000
     26398      1574  TIP3      H2             27.7337373484       -4.4684510500       30.2848512288  TIP3      1382            0.0000000000
     26399      1575  TIP3      OH2            25.9616938685       -8.7519037998       30.8003603089  TIP3      1383            0.0000000000
     26400      1575  TIP3      H1             26.5171245412       -8.6451010064       30.0038824627  TIP3      1383            0.0000000000
     26401      1575  TIP3      H2             26.3425330365       -8.0877005294       31.4157518545  TIP3      1383            0.0000000000
     26402      1576  TIP3      OH2            32.3052752003       -3.1718520236       31.4933774337  TIP3      1384            0.0000000000
     26403      1576  TIP3      H1             32.0911279061       -2.5426805224       32.1825457392  TIP3      1384            0.0000000000
     26404      1576  TIP3      H2             32.1157473958       -4.0387199834       31.9297402575  TIP3      1384            0.0000000000
     26405      1577  TIP3      OH2            26.9107619340       -4.3232692442       35.4990286980  TIP3      1385            0.0000000000
     26406      1577  TIP3      H1             26.5065436264       -3.5769619499       35.9860096107  TIP3      1385            0.0000000000
     26407      1577  TIP3      H2             26.2358808702       -4.5177265784       34.8024623384  TIP3      1385            0.0000000000
     26408      1578  TIP3      OH2            32.8848588956       -8.9819876434       22.9223678177  TIP3      1386            0.0000000000
     26409      1578  TIP3      H1             33.4388573456       -8.7512331893       23.7001289169  TIP3      1386            0.0000000000
     26410      1578  TIP3      H2             33.2849109628       -8.4674728978       22.2127980752  TIP3      1386            0.0000000000
     26411      1579  TIP3      OH2            23.8496091553       -8.1610730726       34.6624616722  TIP3      1387            0.0000000000
     26412      1579  TIP3      H1             23.8990469347       -7.4926547959       35.3721787096  TIP3      1387            0.0000000000
     26413      1579  TIP3      H2             22.9110444107       -8.0662575885       34.4410000866  TIP3      1387            0.0000000000
     26414      1580  TIP3      OH2            30.5854488871       -2.2297214264       26.3864651084  TIP3      1388            0.0000000000
     26415      1580  TIP3      H1             31.0335015822       -1.9279502708       27.1866590409  TIP3      1388            0.0000000000
     26416      1580  TIP3      H2             30.0314126547       -1.4835624902       26.1371447779  TIP3      1388            0.0000000000
     26417      1581  TIP3      OH2            25.1556702442       -2.2833345548       36.2474144899  TIP3      1389            0.0000000000
     26418      1581  TIP3      H1             25.1023930692       -2.3882937780       35.2829819874  TIP3      1389            0.0000000000
     26419      1581  TIP3      H2             24.2252868409       -2.4277947061       36.5052943825  TIP3      1389            0.0000000000
     26420      1582  TIP3      OH2            24.6116545181       -8.4642525679       24.7366742150  TIP3      1390            0.0000000000
     26421      1582  TIP3      H1             24.3020735263       -7.6719063412       24.2457730713  TIP3      1390            0.0000000000
     26422      1582  TIP3      H2             23.9029754202       -9.0936214696       24.5868677447  TIP3      1390            0.0000000000
     26423      1583  TIP3      OH2            20.6864818619       -6.0503568233       33.6481707692  TIP3      1391            0.0000000000
     26424      1583  TIP3      H1             20.2399848918       -6.1274095933       32.7855010410  TIP3      1391            0.0000000000
     26425      1583  TIP3      H2             20.7608736463       -6.9971323129       33.8670669607  TIP3      1391            0.0000000000
     26426      1584  TIP3      OH2            20.4538574859       -3.3147290924       30.4409884898  TIP3      1392            0.0000000000
     26427      1584  TIP3      H1             21.4117167639       -3.4280592345       30.4129479694  TIP3      1392            0.0000000000
     26428      1584  TIP3      H2             20.3673477272       -2.4950952015       30.9423797808  TIP3      1392            0.0000000000
     26429      1585  TIP3      OH2            29.6459856593       -3.0644048500       34.9861610775  TIP3      1393            0.0000000000
     26430      1585  TIP3      H1             29.7059597509       -2.2267861948       35.5038823759  TIP3      1393            0.0000000000
     26431      1585  TIP3      H2             28.7724020155       -3.4221803067       35.2350953816  TIP3      1393            0.0000000000
     26432      1586  TIP3      OH2            30.0905951908        0.6887595900       24.7936545787  TIP3      1394            0.0000000000
     26433      1586  TIP3      H1             29.9838778711        0.6391190820       23.8484955250  TIP3      1394            0.0000000000
     26434      1586  TIP3      H2             30.1231989443        1.6527398615       24.9549640689  TIP3      1394            0.0000000000
     26435      1587  TIP3      OH2            23.7208810496       -0.4521248096       26.6277395240  TIP3      1395            0.0000000000
     26436      1587  TIP3      H1             23.8610780502       -0.8727944581       27.5044378314  TIP3      1395            0.0000000000
     26437      1587  TIP3      H2             22.8826774380       -0.8518093768       26.3345906063  TIP3      1395            0.0000000000
     26438      1588  TIP3      OH2            33.0523976535       -0.1397014842       21.7772649716  TIP3      1396            0.0000000000
     26439      1588  TIP3      H1             33.5755556018       -0.8378208904       21.3511899590  TIP3      1396            0.0000000000
     26440      1588  TIP3      H2             33.1696502552       -0.3806749007       22.7042986250  TIP3      1396            0.0000000000
     26441      1589  TIP3      OH2            32.8250353367       -0.1928940411       24.5507750485  TIP3      1397            0.0000000000
     26442      1589  TIP3      H1             31.8714124285       -0.1050541987       24.7402601409  TIP3      1397            0.0000000000
     26443      1589  TIP3      H2             33.0826912317       -0.9266183992       25.1228741032  TIP3      1397            0.0000000000
     26444      1590  TIP3      OH2            35.3643609310      -10.9668278605       36.6199479714  TIP3      1398            0.0000000000
     26445      1590  TIP3      H1             35.3140207707      -10.6145736504       35.7304846748  TIP3      1398            0.0000000000
     26446      1590  TIP3      H2             35.8702115574      -11.8110644958       36.4486509573  TIP3      1398            0.0000000000
     26447      1591  TIP3      OH2            22.9698688186       -4.7261801609       34.5923450622  TIP3      1399            0.0000000000
     26448      1591  TIP3      H1             23.1919849647       -5.0971864404       35.4708220476  TIP3      1399            0.0000000000
     26449      1591  TIP3      H2             22.1030030955       -5.1286888960       34.3795169683  TIP3      1399            0.0000000000
     26450      1592  TIP3      OH2            25.6497869558      -16.2602416199       30.5494823177  TIP3      1400            0.0000000000
     26451      1592  TIP3      H1             24.7469093851      -16.3798596491       30.1802778821  TIP3      1400            0.0000000000
     26452      1592  TIP3      H2             25.5254005696      -15.4253480375       31.0293471396  TIP3      1400            0.0000000000
     26453      1593  TIP3      OH2            30.2935056759      -16.5880626069       33.9111414127  TIP3      1401            0.0000000000
     26454      1593  TIP3      H1             30.6881867471      -17.0069349275       34.6983784254  TIP3      1401            0.0000000000
     26455      1593  TIP3      H2             29.3219002946      -16.7137555620       34.0523736911  TIP3      1401            0.0000000000
     26456      1594  TIP3      OH2            33.5242676717      -12.7858345450       34.7532236205  TIP3      1402            0.0000000000
     26457      1594  TIP3      H1             33.0335330095      -12.9543827940       35.5921156867  TIP3      1402            0.0000000000
     26458      1594  TIP3      H2             33.4334601781      -11.8333794523       34.6050958602  TIP3      1402            0.0000000000
     26459      1595  TIP3      OH2            25.7559606403      -11.2854820260       31.7915916292  TIP3      1403            0.0000000000
     26460      1595  TIP3      H1             25.0190262243      -11.3011644230       32.4314609010  TIP3      1403            0.0000000000
     26461      1595  TIP3      H2             25.7085454129      -10.3741176472       31.4282003170  TIP3      1403            0.0000000000
     26462      1596  TIP3      OH2            25.6956557629      -11.1569444691       26.6499415155  TIP3      1404            0.0000000000
     26463      1596  TIP3      H1             24.7619779965      -11.4256786271       26.5074625221  TIP3      1404            0.0000000000
     26464      1596  TIP3      H2             26.1057200286      -11.4715707944       25.8430235205  TIP3      1404            0.0000000000
     26465      1597  TIP3      OH2            31.2557464993      -10.6567143688       25.4494261322  TIP3      1405            0.0000000000
     26466      1597  TIP3      H1             30.8358474218       -9.8496537982       25.0906298236  TIP3      1405            0.0000000000
     26467      1597  TIP3      H2             31.9164795233      -10.8403211860       24.7668276976  TIP3      1405            0.0000000000
     26468      1598  TIP3      OH2            30.3054189319      -10.4544245092       36.8752961094  TIP3      1406            0.0000000000
     26469      1598  TIP3      H1             29.7833223498      -11.2341370084       37.1782918114  TIP3      1406            0.0000000000
     26470      1598  TIP3      H2             31.1454125984      -10.5799244238       37.3510896561  TIP3      1406            0.0000000000
     26471      1599  TIP3      OH2            32.2454319732      -11.1655759166       28.2836624668  TIP3      1407            0.0000000000
     26472      1599  TIP3      H1             32.0023954508      -10.6240131790       27.5096752121  TIP3      1407            0.0000000000
     26473      1599  TIP3      H2             32.3653310125      -12.0214327246       27.8231919136  TIP3      1407            0.0000000000
     26474      1600  TIP3      OH2            23.3812993902      -11.0261995874       33.4856225754  TIP3      1408            0.0000000000
     26475      1600  TIP3      H1             23.4491186496      -10.6205256459       34.3672493648  TIP3      1408            0.0000000000
     26476      1600  TIP3      H2             22.9348086334      -11.8639449079       33.6863975163  TIP3      1408            0.0000000000
     26477      1601  TIP3      OH2            20.0375688401      -13.9309270218       27.4423947893  TIP3      1409            0.0000000000
     26478      1601  TIP3      H1             20.7060022625      -13.9582213808       28.1573049764  TIP3      1409            0.0000000000
     26479      1601  TIP3      H2             20.5041713585      -14.2933467186       26.6722758722  TIP3      1409            0.0000000000
     26480      1602  TIP3      OH2            31.4584456788       -9.5956963402       32.8369496519  TIP3      1410            0.0000000000
     26481      1602  TIP3      H1             31.8454716986      -10.2842586902       32.2541615693  TIP3      1410            0.0000000000
     26482      1602  TIP3      H2             30.9969064090      -10.1222158864       33.5133063043  TIP3      1410            0.0000000000
     26483      1603  TIP3      OH2            28.2375026736      -13.6313924033       27.6657041922  TIP3      1411            0.0000000000
     26484      1603  TIP3      H1             27.3175556694      -13.6110112803       27.9994340612  TIP3      1411            0.0000000000
     26485      1603  TIP3      H2             28.7655729448      -13.7656363836       28.4693921415  TIP3      1411            0.0000000000
     26486      1604  TIP3      OH2            23.0883730729      -12.0517185286       26.4936971332  TIP3      1412            0.0000000000
     26487      1604  TIP3      H1             22.1726371337      -11.9268451623       26.1589795274  TIP3      1412            0.0000000000
     26488      1604  TIP3      H2             23.3628082873      -12.9057366541       26.1208253268  TIP3      1412            0.0000000000
     26489      1605  TIP3      OH2            32.6111232577      -14.4103415574       30.9173758750  TIP3      1413            0.0000000000
     26490      1605  TIP3      H1             31.9419945008      -14.3308349099       31.6222062565  TIP3      1413            0.0000000000
     26491      1605  TIP3      H2             32.1147308388      -14.6062287679       30.1065491079  TIP3      1413            0.0000000000
     26492      1606  TIP3      OH2            35.7796633467        1.3158569574       37.2767086146  TIP3      1414            0.0000000000
     26493      1606  TIP3      H1             36.1176878730        1.6382398689       36.4243579762  TIP3      1414            0.0000000000
     26494      1606  TIP3      H2             36.5384533021        1.5759335614       37.8259228053  TIP3      1414            0.0000000000
     26495      1607  TIP3      OH2            23.5651590638       -6.2753212828       36.8125642301  TIP3      1415            0.0000000000
     26496      1607  TIP3      H1             24.2661837804       -6.0192043858       37.4332214176  TIP3      1415            0.0000000000
     26497      1607  TIP3      H2             22.7728439190       -6.1748740133       37.3829565267  TIP3      1415            0.0000000000
     26498      1608  TIP3      OH2            29.5607678909      -10.8545518669       29.5748861128  TIP3      1416            0.0000000000
     26499      1608  TIP3      H1             30.1609299118      -11.3895535551       29.0383083890  TIP3      1416            0.0000000000
     26500      1608  TIP3      H2             29.4087871733      -11.4085706331       30.3497834318  TIP3      1416            0.0000000000
     26501      1609  TIP3      OH2            24.5545942068      -14.7030872816       25.9763195441  TIP3      1417            0.0000000000
     26502      1609  TIP3      H1             24.2460390769      -15.6275376867       26.0057625992  TIP3      1417            0.0000000000
     26503      1609  TIP3      H2             25.3629736399      -14.7899940857       25.4528281449  TIP3      1417            0.0000000000
     26504      1610  TIP3      OH2            28.1904435306      -12.5303125783       31.9886540731  TIP3      1418            0.0000000000
     26505      1610  TIP3      H1             27.3663426496      -12.0112018700       32.0717049426  TIP3      1418            0.0000000000
     26506      1610  TIP3      H2             28.7466595518      -12.1764706584       32.7084899533  TIP3      1418            0.0000000000
     26507      1611  TIP3      OH2            28.7762823282       -6.3278909010       23.6660726940  TIP3      1419            0.0000000000
     26508      1611  TIP3      H1             27.9775754085       -6.7574008913       23.3698022949  TIP3      1419            0.0000000000
     26509      1611  TIP3      H2             28.5893343766       -6.1604495363       24.6078446320  TIP3      1419            0.0000000000
     26510      1612  TIP3      OH2            35.6638064122       -7.1087558435       32.4728511120  TIP3      1420            0.0000000000
     26511      1612  TIP3      H1             36.3947707307       -6.9266429784       31.8310958058  TIP3      1420            0.0000000000
     26512      1612  TIP3      H2             34.9042732539       -7.0704190132       31.8670166582  TIP3      1420            0.0000000000
     26513      1613  TIP3      OH2            30.2860836188       -6.0469541502       34.9125867462  TIP3      1421            0.0000000000
     26514      1613  TIP3      H1             29.9183711258       -6.4636647332       35.6999434554  TIP3      1421            0.0000000000
     26515      1613  TIP3      H2             30.0467141606       -5.1191147922       35.0156748771  TIP3      1421            0.0000000000
     26516      1614  TIP3      OH2            33.3701903090      -11.6176646310       23.4931162049  TIP3      1422            0.0000000000
     26517      1614  TIP3      H1             34.2548262671      -11.6714610475       23.8858404470  TIP3      1422            0.0000000000
     26518      1614  TIP3      H2             33.3839500658      -10.7908827927       22.9681001529  TIP3      1422            0.0000000000
     26519      1615  TIP3      OH2            23.8872213031       -6.9174763375       29.4689156394  TIP3      1423            0.0000000000
     26520      1615  TIP3      H1             24.5775833636       -6.9929200302       28.7805271356  TIP3      1423            0.0000000000
     26521      1615  TIP3      H2             23.9504598861       -7.7749331964       29.9273886912  TIP3      1423            0.0000000000
     26522      1616  TIP3      OH2            20.8811796082       -8.5129670579       34.7517430687  TIP3      1424            0.0000000000
     26523      1616  TIP3      H1             21.0572171141       -8.9568787935       35.5995393997  TIP3      1424            0.0000000000
     26524      1616  TIP3      H2             20.2639521944       -9.1228212818       34.3051710248  TIP3      1424            0.0000000000
     26525      1617  TIP3      OH2            27.8903385151       -8.9569932849       36.9189452239  TIP3      1425            0.0000000000
     26526      1617  TIP3      H1             27.5776654292       -9.2479417039       36.0513658671  TIP3      1425            0.0000000000
     26527      1617  TIP3      H2             28.8193763412       -9.2625958937       36.9140022501  TIP3      1425            0.0000000000
     26528      1618  TIP3      OH2            32.5702809874       -3.6294450466       34.8612363987  TIP3      1426            0.0000000000
     26529      1618  TIP3      H1             31.6513524359       -3.4425039539       34.6221540949  TIP3      1426            0.0000000000
     26530      1618  TIP3      H2             32.5459077308       -3.3314989364       35.7898507677  TIP3      1426            0.0000000000
     26531      1619  TIP3      OH2            33.6907842282       -7.8086055685       30.7594030354  TIP3      1427            0.0000000000
     26532      1619  TIP3      H1             32.7540082152       -8.0292766691       30.6292156651  TIP3      1427            0.0000000000
     26533      1619  TIP3      H2             34.1674608036       -8.5505169889       30.3468635046  TIP3      1427            0.0000000000
     26534      1620  TIP3      OH2            26.2617447593       -3.4522836965       26.8723435331  TIP3      1428            0.0000000000
     26535      1620  TIP3      H1             26.7692843884       -2.6579026348       26.6380636215  TIP3      1428            0.0000000000
     26536      1620  TIP3      H2             25.3821240989       -3.2262517503       26.5425537615  TIP3      1428            0.0000000000
     26537      1621  TIP3      OH2            27.6859252625       -5.7931341554       26.3736629511  TIP3      1429            0.0000000000
     26538      1621  TIP3      H1             27.3782580304       -4.8689591124       26.4632562924  TIP3      1429            0.0000000000
     26539      1621  TIP3      H2             26.9570462268       -6.2662947834       26.8228953207  TIP3      1429            0.0000000000
     26540      1622  TIP3      OH2            28.1320729801       -1.6118913319       32.7807678079  TIP3      1430            0.0000000000
     26541      1622  TIP3      H1             28.5850319537       -0.7998193026       32.4994660800  TIP3      1430            0.0000000000
     26542      1622  TIP3      H2             28.7388982254       -1.9459970716       33.4654891393  TIP3      1430            0.0000000000
     26543      1623  TIP3      OH2            26.3749921504       -0.8117290343       25.9546898491  TIP3      1431            0.0000000000
     26544      1623  TIP3      H1             25.4044991899       -0.6766729466       26.0313275757  TIP3      1431            0.0000000000
     26545      1623  TIP3      H2             26.7089088596        0.0495805579       26.2632459095  TIP3      1431            0.0000000000
     26546      1624  TIP3      OH2            31.6830138191       -5.6021772834       32.4131508304  TIP3      1432            0.0000000000
     26547      1624  TIP3      H1             31.3250003250       -5.8026493555       33.3043207958  TIP3      1432            0.0000000000
     26548      1624  TIP3      H2             32.3028794108       -6.3262861349       32.2379601707  TIP3      1432            0.0000000000
     26549      1625  TIP3      OH2            34.4665466181       -1.0463514411       34.8865724062  TIP3      1433            0.0000000000
     26550      1625  TIP3      H1             33.7549083100       -1.5216634447       34.4076523668  TIP3      1433            0.0000000000
     26551      1625  TIP3      H2             34.6774727221       -0.3307527451       34.2475607449  TIP3      1433            0.0000000000
     26552      1626  TIP3      OH2            22.5306064082      -13.7640515790       34.2999094383  TIP3      1434            0.0000000000
     26553      1626  TIP3      H1             21.6205608456      -13.4223683172       34.2610753376  TIP3      1434            0.0000000000
     26554      1626  TIP3      H2             22.4163477870      -14.6235417037       34.7357640544  TIP3      1434            0.0000000000
     26555      1627  TIP3      OH2            34.7512027855       -5.9177036596       23.7539711164  TIP3      1435            0.0000000000
     26556      1627  TIP3      H1             34.5242315783       -6.7082405732       24.2816494950  TIP3      1435            0.0000000000
     26557      1627  TIP3      H2             35.6945830633       -5.8265943076       23.9258582198  TIP3      1435            0.0000000000
     26558      1628  TIP3      OH2            22.1440405723       -1.9847413188       32.7141538933  TIP3      1436            0.0000000000
     26559      1628  TIP3      H1             22.4369206922       -2.9092408157       32.7188108307  TIP3      1436            0.0000000000
     26560      1628  TIP3      H2             22.4070491155       -1.6992424933       33.5966673557  TIP3      1436            0.0000000000
     26561      1629  TIP3      OH2            26.8808780297       -3.9005157752       22.4057886144  TIP3      1437            0.0000000000
     26562      1629  TIP3      H1             27.1300379283       -4.4175848577       23.1784874559  TIP3      1437            0.0000000000
     26563      1629  TIP3      H2             26.9740735227       -2.9864436236       22.7388968781  TIP3      1437            0.0000000000
     26564      1630  TIP3      OH2            23.4828608446       -6.7074706928       22.9357669449  TIP3      1438            0.0000000000
     26565      1630  TIP3      H1             22.7353060211       -6.3350119262       23.4560848836  TIP3      1438            0.0000000000
     26566      1630  TIP3      H2             23.9046041977       -5.8680029050       22.6617931821  TIP3      1438            0.0000000000
     26567      1631  TIP3      OH2            31.2344574198      -14.0065737629       33.2453248850  TIP3      1439            0.0000000000
     26568      1631  TIP3      H1             31.9776723680      -13.9416374709       33.8597393157  TIP3      1439            0.0000000000
     26569      1631  TIP3      H2             30.8673334973      -14.8887144152       33.4460471826  TIP3      1439            0.0000000000
     26570      1632  TIP3      OH2            32.1104520624      -14.4327935097       24.3046009715  TIP3      1440            0.0000000000
     26571      1632  TIP3      H1             32.1851594770      -13.8839510792       23.5072348374  TIP3      1440            0.0000000000
     26572      1632  TIP3      H2             32.5963854445      -13.9449550548       24.9882792739  TIP3      1440            0.0000000000
     26573      1633  TIP3      OH2            29.8105586565      -11.6513186351       34.3387997896  TIP3      1441            0.0000000000
     26574      1633  TIP3      H1             29.8961092642      -11.0890399923       35.1327415926  TIP3      1441            0.0000000000
     26575      1633  TIP3      H2             30.4626897701      -12.3598940402       34.4310162183  TIP3      1441            0.0000000000
     26576      1634  TIP3      OH2            30.0557985294      -15.5857807465       26.0468096133  TIP3      1442            0.0000000000
     26577      1634  TIP3      H1             29.7795570345      -14.9491850080       26.7266821902  TIP3      1442            0.0000000000
     26578      1634  TIP3      H2             30.7670295732      -15.0697581595       25.5885452876  TIP3      1442            0.0000000000
     26579      1635  TIP3      OH2            27.0782275259       -1.2333170731       23.1707973496  TIP3      1443            0.0000000000
     26580      1635  TIP3      H1             27.1836083136       -0.4069461537       22.6684637041  TIP3      1443            0.0000000000
     26581      1635  TIP3      H2             26.8218718022       -0.8928456373       24.0499953956  TIP3      1443            0.0000000000
     26582      1636  TIP3      OH2            35.8587523634      -13.9955663978       35.0046710619  TIP3      1444            0.0000000000
     26583      1636  TIP3      H1             35.0156107945      -13.4807985973       35.0299285029  TIP3      1444            0.0000000000
     26584      1636  TIP3      H2             36.2510282085      -13.7292745161       34.1737240335  TIP3      1444            0.0000000000
     26585      1637  TIP3      OH2            34.5750663946       -9.9973408377       29.2378959397  TIP3      1445            0.0000000000
     26586      1637  TIP3      H1             33.7565079321      -10.4342535881       28.9216854766  TIP3      1445            0.0000000000
     26587      1637  TIP3      H2             35.0060658263      -10.7081071087       29.7237414690  TIP3      1445            0.0000000000
     26588      1638  TIP3      OH2            24.0763530922       -4.1550838592       21.9071930854  TIP3      1446            0.0000000000
     26589      1638  TIP3      H1             24.6102996196       -3.3626468726       22.0964318392  TIP3      1446            0.0000000000
     26590      1638  TIP3      H2             24.4832841698       -4.4482436188       21.0884498545  TIP3      1446            0.0000000000
     26591      1639  TIP3      OH2            35.7050833886       -0.7174498946       30.8547175791  TIP3      1447            0.0000000000
     26592      1639  TIP3      H1             35.5469905732       -0.0445677024       30.1698614558  TIP3      1447            0.0000000000
     26593      1639  TIP3      H2             36.6466106522       -0.6275048787       31.0251930284  TIP3      1447            0.0000000000
     26594      1640  TIP3      OH2            23.1405175332      -16.6154551699       29.6653062748  TIP3      1448            0.0000000000
     26595      1640  TIP3      H1             22.9362806786      -16.5941013252       28.7049709993  TIP3      1448            0.0000000000
     26596      1640  TIP3      H2             22.7198972476      -17.4613145721       29.9258265939  TIP3      1448            0.0000000000
     26597      1641  TIP3      OH2            22.0870326703       -2.6816238003       25.8034188495  TIP3      1449            0.0000000000
     26598      1641  TIP3      H1             21.2324776824       -2.2344378286       25.7874697402  TIP3      1449            0.0000000000
     26599      1641  TIP3      H2             22.5993359008       -2.2274543379       25.1290847770  TIP3      1449            0.0000000000
     26600      1642  TIP3      OH2            21.3052404135       -0.0305751961       37.1282965408  TIP3      1450            0.0000000000
     26601      1642  TIP3      H1             21.9086781438       -0.2910486519       37.8409760694  TIP3      1450            0.0000000000
     26602      1642  TIP3      H2             20.8854445813       -0.8866869720       36.9090974731  TIP3      1450            0.0000000000
     26603      1643  TIP3      OH2            25.9615938520       -1.1463484982       38.7148636892  TIP3      1451            0.0000000000
     26604      1643  TIP3      H1             26.7457312033       -1.6211501969       39.0221056839  TIP3      1451            0.0000000000
     26605      1643  TIP3      H2             25.9638138361       -1.4111159798       37.7697229592  TIP3      1451            0.0000000000
     26606      1644  TIP3      OH2            32.5271649532       -2.7469964226       37.4495703159  TIP3      1452            0.0000000000
     26607      1644  TIP3      H1             32.1892453268       -3.6250846081       37.7226563585  TIP3      1452            0.0000000000
     26608      1644  TIP3      H2             33.2948354511       -2.6408239994       38.0420048965  TIP3      1452            0.0000000000
     26609      1645  TIP3      OH2            21.2091419577       -6.2857698143       38.0944820738  TIP3      1453            0.0000000000
     26610      1645  TIP3      H1             21.3891410707       -7.1881528113       37.7670218456  TIP3      1453            0.0000000000
     26611      1645  TIP3      H2             20.4786554846       -6.0112800524       37.5120948362  TIP3      1453            0.0000000000
     26612      1646  TIP3      OH2            27.9333064289       -6.2953630372       37.4651693407  TIP3      1454            0.0000000000
     26613      1646  TIP3      H1             27.5899556606       -5.9804759936       36.6080752612  TIP3      1454            0.0000000000
     26614      1646  TIP3      H2             28.0145995100       -7.2705715813       37.3551522862  TIP3      1454            0.0000000000
     26615      1647  TIP3      OH2            33.6018902148       -6.4549600055       34.8742989476  TIP3      1455            0.0000000000
     26616      1647  TIP3      H1             34.3885081351       -5.8521192821       34.8123742711  TIP3      1455            0.0000000000
     26617      1647  TIP3      H2             32.9226082442       -5.7720002508       34.9202080838  TIP3      1455            0.0000000000
     26618      1648  TIP3      OH2            22.1282371418       -9.0414959000       37.4806960299  TIP3      1456            0.0000000000
     26619      1648  TIP3      H1             22.5397936192       -9.9083171249       37.3883112983  TIP3      1456            0.0000000000
     26620      1648  TIP3      H2             21.8973479768       -9.0298244769       38.4292752833  TIP3      1456            0.0000000000
     26621      1649  TIP3      OH2            26.0308193150      -10.0965021559       34.8364023531  TIP3      1457            0.0000000000
     26622      1649  TIP3      H1             25.4343950313       -9.3753733781       35.0908644225  TIP3      1457            0.0000000000
     26623      1649  TIP3      H2             26.4216559801       -9.7321629597       34.0240130862  TIP3      1457            0.0000000000
     26624      1650  TIP3      OH2            31.1003437041       -7.5207151963       38.2520071675  TIP3      1458            0.0000000000
     26625      1650  TIP3      H1             32.0454348648       -7.5477389349       38.0558478177  TIP3      1458            0.0000000000
     26626      1650  TIP3      H2             30.9507365740       -8.3209806256       38.7740750062  TIP3      1458            0.0000000000
     26627      1651  TIP3      OH2            26.4378795411      -12.7118985306       35.8910668260  TIP3      1459            0.0000000000
     26628      1651  TIP3      H1             26.5502447823      -13.4317099627       35.2426896318  TIP3      1459            0.0000000000
     26629      1651  TIP3      H2             26.3923142123      -11.9074465553       35.3370932171  TIP3      1459            0.0000000000
     26630      1652  TIP3      OH2            26.8355038318      -14.3416454529       33.4438246086  TIP3      1460            0.0000000000
     26631      1652  TIP3      H1             27.3475134418      -13.8766552372       32.7393784389  TIP3      1460            0.0000000000
     26632      1652  TIP3      H2             25.9445405739      -14.4220579646       33.0328680525  TIP3      1460            0.0000000000
     26633      1653  TIP3      OH2            28.3759120547       -8.8598138364       33.6833372711  TIP3      1461            0.0000000000
     26634      1653  TIP3      H1             29.1331629767       -9.0197905512       33.1105170381  TIP3      1461            0.0000000000
     26635      1653  TIP3      H2             28.0199146411       -8.0187499638       33.3552235410  TIP3      1461            0.0000000000
     26636      1654  TIP3      OH2            32.8229445506      -11.0798497655       38.6545077194  TIP3      1462            0.0000000000
     26637      1654  TIP3      H1             33.0417866968      -12.0207295642       38.5605349454  TIP3      1462            0.0000000000
     26638      1654  TIP3      H2             33.6998375783      -10.6721920174       38.6136475831  TIP3      1462            0.0000000000
     26639      1655  TIP3      OH2            34.1407746518       -8.2595697561       36.8262548040  TIP3      1463            0.0000000000
     26640      1655  TIP3      H1             33.8393052938       -7.5794061969       36.1839150320  TIP3      1463            0.0000000000
     26641      1655  TIP3      H2             35.0655756268       -8.3749578583       36.6006512815  TIP3      1463            0.0000000000
     26642      1656  TIP3      OH2            24.9091638320      -11.5030074658       37.8671418564  TIP3      1464            0.0000000000
     26643      1656  TIP3      H1             24.1215283322      -12.0311970153       37.6163946278  TIP3      1464            0.0000000000
     26644      1656  TIP3      H2             25.5421007892      -11.8259033531       37.1959642692  TIP3      1464            0.0000000000
     26645      1657  TIP3      OH2            27.6215458191      -16.9049929438       33.8476319337  TIP3      1465            0.0000000000
     26646      1657  TIP3      H1             27.4537246941      -15.9408823068       33.7406493911  TIP3      1465            0.0000000000
     26647      1657  TIP3      H2             26.8756341569      -17.2668789173       33.3377433412  TIP3      1465            0.0000000000
     26648      1658  TIP3      OH2            28.9018752379      -12.5740032228       37.4692407462  TIP3      1466            0.0000000000
     26649      1658  TIP3      H1             28.5821186701      -12.7907496914       38.3651018720  TIP3      1466            0.0000000000
     26650      1658  TIP3      H2             28.1195231198      -12.7631375364       36.9137031643  TIP3      1466            0.0000000000
     26651      1659  TIP3      OH2            31.5745495520      -13.4236977920       36.5313745052  TIP3      1467            0.0000000000
     26652      1659  TIP3      H1             30.6178567288      -13.3871892944       36.6782684063  TIP3      1467            0.0000000000
     26653      1659  TIP3      H2             31.9003606972      -14.0509967489       37.2062875133  TIP3      1467            0.0000000000
     26654      1660  TIP3      OH2            33.2334975234      -14.8235005064       38.4686833685  TIP3      1468            0.0000000000
     26655      1660  TIP3      H1             33.1362227097      -15.7974071534       38.4902575020  TIP3      1468            0.0000000000
     26656      1660  TIP3      H2             32.9352849584      -14.5116418683       39.3584792875  TIP3      1468            0.0000000000
     26657      1661  TIP3      OH2            23.0030900704      -13.5363809874       37.5709034222  TIP3      1469            0.0000000000
     26658      1661  TIP3      H1             23.2336676329      -14.2727767157       36.9750687148  TIP3      1469            0.0000000000
     26659      1661  TIP3      H2             22.8872514654      -13.9927406300       38.4237753779  TIP3      1469            0.0000000000
     26660      1662  TIP3      OH2            27.8478230461      -17.5084571275       36.5294272776  TIP3      1470            0.0000000000
     26661      1662  TIP3      H1             28.5228052321      -18.2197018815       36.5153816992  TIP3      1470            0.0000000000
     26662      1662  TIP3      H2             27.7353016253      -17.3589650340       35.5697494369  TIP3      1470            0.0000000000
     26663      1663  TIP3      OH2            28.1669158265      -15.9373489598       38.6568646019  TIP3      1471            0.0000000000
     26664      1663  TIP3      H1             28.0439810298      -16.4047494703       37.7926476509  TIP3      1471            0.0000000000
     26665      1663  TIP3      H2             27.6360148083      -15.1303138129       38.5057339393  TIP3      1471            0.0000000000
     26666      1664  TIP3      OH2            27.8152373940        1.1694342281       22.0420208536  TIP3      1472            0.0000000000
     26667      1664  TIP3      H1             28.7623276466        1.1935701771       21.9312951572  TIP3      1472            0.0000000000
     26668      1664  TIP3      H2             27.4730606135        1.6251242457       21.2563805415  TIP3      1472            0.0000000000
     26669      1665  TIP3      OH2            19.9898725810        0.9922972631       26.2897549273  TIP3      1473            0.0000000000
     26670      1665  TIP3      H1             19.3052019910        0.4945722665       25.7982761416  TIP3      1473            0.0000000000
     26671      1665  TIP3      H2             20.2948031946        0.3252757756       26.9289335369  TIP3      1473            0.0000000000
     26672      1666  TIP3      OH2            20.8248219334       -0.9034537025       28.1323930738  TIP3      1474            0.0000000000
     26673      1666  TIP3      H1             20.4753675358       -1.7774560992       28.3480402078  TIP3      1474            0.0000000000
     26674      1666  TIP3      H2             21.0582351524       -0.5625095245       29.0152463310  TIP3      1474            0.0000000000
     26675      1667  TIP3      OH2            36.2950367378       -2.8298588984       33.3090846868  TIP3      1475            0.0000000000
     26676      1667  TIP3      H1             35.6345038556       -2.4055784880       33.8731739586  TIP3      1475            0.0000000000
     26677      1667  TIP3      H2             35.7702332734       -3.2005252803       32.5757804269  TIP3      1475            0.0000000000
     26678      1668  TIP3      OH2            35.3963436958       -9.8258325935       26.6578308433  TIP3      1476            0.0000000000
     26679      1668  TIP3      H1             35.6273073576      -10.7621097870       26.6712480660  TIP3      1476            0.0000000000
     26680      1668  TIP3      H2             35.5005360699       -9.5923366837       27.6030437781  TIP3      1476            0.0000000000
     26681      1669  TIP3      OH2            20.8848003181       -7.8136882171       30.6233159869  TIP3      1477            0.0000000000
     26682      1669  TIP3      H1             21.0679278311       -7.8956387134       29.6622937136  TIP3      1477            0.0000000000
     26683      1669  TIP3      H2             21.7775176201       -7.9854498218       30.9816086904  TIP3      1477            0.0000000000
     26684      1670  TIP3      OH2            35.5459828403      -12.3800873226       24.9170465687  TIP3      1478            0.0000000000
     26685      1670  TIP3      H1             35.8227942395      -13.2327374393       25.2860134546  TIP3      1478            0.0000000000
     26686      1670  TIP3      H2             36.3629916395      -12.0044214683       24.5848712777  TIP3      1478            0.0000000000
     26687      1671  TIP3      OH2           -37.0412951354      -12.5964309702       30.4507244245  TIP3      1479            0.0000000000
     26688      1671  TIP3      H1            -36.1569587659      -12.2302759452       30.3325044152  TIP3      1479            0.0000000000
     26689      1671  TIP3      H2            -37.2486720153      -11.9559447006       31.1538408128  TIP3      1479            0.0000000000
     26690      1672  TIP3      OH2            36.2620759722      -11.0012122770       33.4815061715  TIP3      1480            0.0000000000
     26691      1672  TIP3      H1             35.3337831668      -10.7244413600       33.5938860729  TIP3      1480            0.0000000000
     26692      1672  TIP3      H2             36.6327385987      -10.2887792172       32.9289728621  TIP3      1480            0.0000000000
     26693      1673  TIP3      OH2            20.5044880187      -12.5237952622       36.7627218128  TIP3      1481            0.0000000000
     26694      1673  TIP3      H1             21.4395856830      -12.7193048405       36.9691628503  TIP3      1481            0.0000000000
     26695      1673  TIP3      H2             20.0476715158      -13.3369668148       37.0711365028  TIP3      1481            0.0000000000
     26696      1674  TIP3      OH2            35.3326761721      -15.3123530646       25.7194879230  TIP3      1482            0.0000000000
     26697      1674  TIP3      H1             36.2557815770      -15.5320637629       25.9464342820  TIP3      1482            0.0000000000
     26698      1674  TIP3      H2             35.3501331745      -15.7726654314       24.8522591250  TIP3      1482            0.0000000000
     26699      1675  TIP3      OH2            21.7030560318      -14.2241249599       29.6279288036  TIP3      1483            0.0000000000
     26700      1675  TIP3      H1             22.1672857404      -15.0444228244       29.8946792866  TIP3      1483            0.0000000000
     26701      1675  TIP3      H2             22.2450322049      -13.5293136050       30.0238000683  TIP3      1483            0.0000000000
     26702      1676  TIP3      OH2            19.9862496408      -11.2253261981       30.6686677135  TIP3      1484            0.0000000000
     26703      1676  TIP3      H1             20.5479182001      -11.4683078838       29.9043992721  TIP3      1484            0.0000000000
     26704      1676  TIP3      H2             20.4456373347      -10.4166155650       30.9377954406  TIP3      1484            0.0000000000
     26705      1677  TIP3      OH2            20.3396604844      -14.9357164908       24.7252177754  TIP3      1485            0.0000000000
     26706      1677  TIP3      H1             19.3905358785      -14.7691727749       24.5985593058  TIP3      1485            0.0000000000
     26707      1677  TIP3      H2             20.7530102523      -14.4531204263       24.0076548860  TIP3      1485            0.0000000000
     26708      1678  TIP3      OH2            34.9102693465       -0.2030586755       26.7988085210  TIP3      1486            0.0000000000
     26709      1678  TIP3      H1             35.5741606112       -0.4966685262       26.1567310814  TIP3      1486            0.0000000000
     26710      1678  TIP3      H2             35.4312312045        0.4008150926       27.3567882467  TIP3      1486            0.0000000000
     26711      1679  TIP3      OH2            20.3026525085      -16.3036220348       33.0381100604  TIP3      1487            0.0000000000
     26712      1679  TIP3      H1             19.6317994860      -16.4978090925       33.7162376770  TIP3      1487            0.0000000000
     26713      1679  TIP3      H2             19.8455982805      -15.6318960514       32.4901901517  TIP3      1487            0.0000000000
     26714      1680  TIP3      OH2            22.5388901605       -3.0601860339       37.2162571110  TIP3      1488            0.0000000000
     26715      1680  TIP3      H1             21.6908827724       -2.8932428795       36.7709879411  TIP3      1488            0.0000000000
     26716      1680  TIP3      H2             22.2596655554       -3.1910133134       38.1262930896  TIP3      1488            0.0000000000
     26717      1681  TIP3      OH2            25.4370841159       -2.1028399229       33.4816247000  TIP3      1489            0.0000000000
     26718      1681  TIP3      H1             25.0971104618       -1.2428575789       33.2040063378  TIP3      1489            0.0000000000
     26719      1681  TIP3      H2             26.3628908822       -2.0139215282       33.1711665453  TIP3      1489            0.0000000000
     26720      1682  TIP3      OH2            29.7585456620       -0.6817335659       36.3887090256  TIP3      1490            0.0000000000
     26721      1682  TIP3      H1             29.8998097335       -1.0279078878       37.3020571376  TIP3      1490            0.0000000000
     26722      1682  TIP3      H2             30.6590442097       -0.3799086603       36.1477925649  TIP3      1490            0.0000000000
     26723      1683  TIP3      OH2            32.0693170898        0.5854690071       35.6963302388  TIP3      1491            0.0000000000
     26724      1683  TIP3      H1             32.8061967219        0.0054354690       35.4551130923  TIP3      1491            0.0000000000
     26725      1683  TIP3      H2             32.4509852886        1.0308437350       36.4819833729  TIP3      1491            0.0000000000
     26726      1684  TIP3      OH2            22.8640906233        1.1418235730       33.4734584521  TIP3      1492            0.0000000000
     26727      1684  TIP3      H1             22.1295841268        1.6325686945       33.0730465765  TIP3      1492            0.0000000000
     26728      1684  TIP3      H2             22.5393213083        0.9334974288       34.3585578803  TIP3      1492            0.0000000000
     26729      1685  TIP3      OH2            25.3322680604        0.7135914515       32.5486730429  TIP3      1493            0.0000000000
     26730      1685  TIP3      H1             24.4388331382        0.8543827679       32.9419318635  TIP3      1493            0.0000000000
     26731      1685  TIP3      H2             25.2726551543        1.3021796675       31.7726605886  TIP3      1493            0.0000000000
     26732      1686  TIP3      OH2            30.0046035672        0.6111917994       31.7265367094  TIP3      1494            0.0000000000
     26733      1686  TIP3      H1             29.5714384515        1.1789482278       31.0669621133  TIP3      1494            0.0000000000
     26734      1686  TIP3      H2             30.1719783678        1.2539993249       32.4504542475  TIP3      1494            0.0000000000
     26735      1687  TIP3      OH2            32.3309691371       -0.5595308648       32.7365606693  TIP3      1495            0.0000000000
     26736      1687  TIP3      H1             31.4675897483       -0.2972536958       32.3804981605  TIP3      1495            0.0000000000
     26737      1687  TIP3      H2             32.7827960276        0.2997561682       32.6606684134  TIP3      1495            0.0000000000
     26738      1688  TIP3      OH2            34.7802390375        1.0033612251       32.9603761513  TIP3      1496            0.0000000000
     26739      1688  TIP3      H1             34.7712196004        1.9550578403       32.7423988285  TIP3      1496            0.0000000000
     26740      1688  TIP3      H2             35.1188699756        0.6373549243       32.1217712702  TIP3      1496            0.0000000000
     26741      1689  TIP3      OH2            22.3143291451       -0.2158891812       30.4153422357  TIP3      1497            0.0000000000
     26742      1689  TIP3      H1             22.2411158583       -0.6747670951       31.2790695901  TIP3      1497            0.0000000000
     26743      1689  TIP3      H2             23.1303048083       -0.5886782661       30.0245195731  TIP3      1497            0.0000000000
     26744      1690  TIP3      OH2            24.3946866138       -1.5052281671       29.0714078578  TIP3      1498            0.0000000000
     26745      1690  TIP3      H1             24.2290682249       -2.4394481999       29.2965371975  TIP3      1498            0.0000000000
     26746      1690  TIP3      H2             25.2537145261       -1.3556464246       29.5221487584  TIP3      1498            0.0000000000
     26747      1691  TIP3      OH2            26.9791614449       -1.0229629885       29.9432390935  TIP3      1499            0.0000000000
     26748      1691  TIP3      H1             27.1563796903       -1.9424251384       29.6771651806  TIP3      1499            0.0000000000
     26749      1691  TIP3      H2             27.0414064193       -1.0775461655       30.9067144353  TIP3      1499            0.0000000000
     26750      1692  TIP3      OH2            30.4375564681      -15.3719586984       29.0766601342  TIP3      1500            0.0000000000
     26751      1692  TIP3      H1             29.7740961852      -16.0201298486       29.3594666190  TIP3      1500            0.0000000000
     26752      1692  TIP3      H2             31.0074890644      -15.8948106527       28.4990846688  TIP3      1500            0.0000000000
     26753      1693  TIP3      OH2            35.5980989022      -17.3115521135       29.1872160539  TIP3      1501            0.0000000000
     26754      1693  TIP3      H1             36.1835222039      -16.7234160877       28.7018421151  TIP3      1501            0.0000000000
     26755      1693  TIP3      H2             34.7118389619      -16.9667609234       28.9405953284  TIP3      1501            0.0000000000
     26756      1694  TIP3      OH2            22.8249318300      -16.7266772679       26.8987180344  TIP3      1502            0.0000000000
     26757      1694  TIP3      H1             22.0079265620      -16.9636831978       26.4298836994  TIP3      1502            0.0000000000
     26758      1694  TIP3      H2             23.2923723312      -17.5864391370       26.8873711457  TIP3      1502            0.0000000000
     26759      1695  TIP3      OH2            27.2994474171      -16.8025117891       26.7052738947  TIP3      1503            0.0000000000
     26760      1695  TIP3      H1             28.2070917824      -16.4538382125       26.6617439972  TIP3      1503            0.0000000000
     26761      1695  TIP3      H2             27.2471385472      -17.0309401000       27.6364313539  TIP3      1503            0.0000000000
     26762      1696  TIP3      OH2            33.0169172891      -16.8362416950       28.3418615098  TIP3      1504            0.0000000000
     26763      1696  TIP3      H1             32.9801541438      -16.6698988850       27.3916374481  TIP3      1504            0.0000000000
     26764      1696  TIP3      H2             32.6064897921      -17.7270289815       28.4507683296  TIP3      1504            0.0000000000
     26765      1697  TIP3      OH2            34.2661146800      -16.7974739886       23.9441789056  TIP3      1505            0.0000000000
     26766      1697  TIP3      H1             33.5194877311      -16.1930902259       23.8619328762  TIP3      1505            0.0000000000
     26767      1697  TIP3      H2             33.8091225925      -17.6343242112       24.1813833204  TIP3      1505            0.0000000000
     26768      1698  TIP3      OH2            28.3568617427      -14.7843032588       23.6194873086  TIP3      1506            0.0000000000
     26769      1698  TIP3      H1             28.6952955172      -15.3660978502       24.3070488964  TIP3      1506            0.0000000000
     26770      1698  TIP3      H2             28.5139635079      -13.9198304662       24.0002074656  TIP3      1506            0.0000000000
     26771      1699  TIP3      OH2            22.7091605832      -16.2097897190       36.3849926757  TIP3      1507            0.0000000000
     26772      1699  TIP3      H1             22.3267417333      -17.0034816261       36.8064163849  TIP3      1507            0.0000000000
     26773      1699  TIP3      H2             23.6233600903      -16.2419248777       36.7494019301  TIP3      1507            0.0000000000
     26774      1700  TIP3      OH2            24.7091254612      -16.7907708187       38.0616482493  TIP3      1508            0.0000000000
     26775      1700  TIP3      H1             25.5758983964      -17.1471746110       37.7702868241  TIP3      1508            0.0000000000
     26776      1700  TIP3      H2             24.3129958420      -17.6143208846       38.4103620579  TIP3      1508            0.0000000000
     26777      1701  TIP3      OH2            33.1225175300      -17.5109513580       38.1674543818  TIP3      1509            0.0000000000
     26778      1701  TIP3      H1             33.2120469416      -17.9982704811       39.0095956142  TIP3      1509            0.0000000000
     26779      1701  TIP3      H2             34.0386828477      -17.5393086377       37.8045153308  TIP3      1509            0.0000000000
     26780      1702  TIP3      OH2            36.1180243051       -1.5977498021       36.9570337126  TIP3      1510            0.0000000000
     26781      1702  TIP3      H1             35.4672928094       -1.6601253037       36.2268425050  TIP3      1510            0.0000000000
     26782      1702  TIP3      H2             36.1471635582       -0.6141370258       37.0169597843  TIP3      1510            0.0000000000
     26783      1703  TIP3      OH2           -24.6588994510       11.2502655928       26.7915089459  TIP3      1511            0.0000000000
     26784      1703  TIP3      H1            -24.6568718114       12.2290429081       26.7592432946  TIP3      1511            0.0000000000
     26785      1703  TIP3      H2            -25.4077009950       11.0309421435       26.2150230552  TIP3      1511            0.0000000000
     26786      1704  TIP3      OH2           -25.7637527739       10.4906262892       30.2915721773  TIP3      1512            0.0000000000
     26787      1704  TIP3      H1            -25.8164606294        9.8467166651       31.0069416873  TIP3      1512            0.0000000000
     26788      1704  TIP3      H2            -26.1552303666       10.0174248713       29.5348023528  TIP3      1512            0.0000000000
     26789      1705  TIP3      OH2           -33.4253291699       10.1648867811       31.8474764423  TIP3      1513            0.0000000000
     26790      1705  TIP3      H1            -33.3237711963        9.4927505125       32.5445154412  TIP3      1513            0.0000000000
     26791      1705  TIP3      H2            -32.6911134884       10.7647196627       32.0486831851  TIP3      1513            0.0000000000
     26792      1706  TIP3      OH2           -22.1074159520       13.4506742171       28.5772588005  TIP3      1514            0.0000000000
     26793      1706  TIP3      H1            -22.5283077539       12.7379015646       29.0662669248  TIP3      1514            0.0000000000
     26794      1706  TIP3      H2            -22.0911675085       14.1696535348       29.2363776857  TIP3      1514            0.0000000000
     26795      1707  TIP3      OH2           -32.5243116432       14.6075676275       30.4025010270  TIP3      1515            0.0000000000
     26796      1707  TIP3      H1            -32.8184255893       13.7703708068       29.9962997623  TIP3      1515            0.0000000000
     26797      1707  TIP3      H2            -31.5652849506       14.4266906831       30.3512614293  TIP3      1515            0.0000000000
     26798      1708  TIP3      OH2           -35.6069634142        8.1568155244       25.4559737594  TIP3      1516            0.0000000000
     26799      1708  TIP3      H1            -36.0617090574        8.9753797680       25.7840479917  TIP3      1516            0.0000000000
     26800      1708  TIP3      H2            -36.4130709669        7.6507054293       25.3902216065  TIP3      1516            0.0000000000
     26801      1709  TIP3      OH2           -35.2129342973       10.3306294495       27.9067425132  TIP3      1517            0.0000000000
     26802      1709  TIP3      H1            -34.8896447954        9.6049343983       28.4624246611  TIP3      1517            0.0000000000
     26803      1709  TIP3      H2            -34.4450704133       10.5289545176       27.3453174942  TIP3      1517            0.0000000000
     26804      1710  TIP3      OH2           -24.9655675804       18.6294834061       28.8072470047  TIP3      1518            0.0000000000
     26805      1710  TIP3      H1            -24.3419783443       17.9152396933       28.5249664212  TIP3      1518            0.0000000000
     26806      1710  TIP3      H2            -25.1981544783       18.2938409678       29.6743860556  TIP3      1518            0.0000000000
     26807      1711  TIP3      OH2           -27.4107335404       12.9096492727       30.7747146588  TIP3      1519            0.0000000000
     26808      1711  TIP3      H1            -27.1168240535       12.2941704487       30.0836703513  TIP3      1519            0.0000000000
     26809      1711  TIP3      H2            -26.5990199481       13.0578504729       31.2753365578  TIP3      1519            0.0000000000
     26810      1712  TIP3      OH2           -18.8174618627        4.5635968583       31.4919748205  TIP3      1520            0.0000000000
     26811      1712  TIP3      H1            -18.6486848369        5.1569501867       32.2551704308  TIP3      1520            0.0000000000
     26812      1712  TIP3      H2            -18.2626440963        4.9901098036       30.8246722940  TIP3      1520            0.0000000000
     26813      1713  TIP3      OH2           -24.2564429172        7.3763601291       31.0701996647  TIP3      1521            0.0000000000
     26814      1713  TIP3      H1            -24.0923741260        6.4169696393       31.0713578239  TIP3      1521            0.0000000000
     26815      1713  TIP3      H2            -24.3589468249        7.5196017199       30.1093342554  TIP3      1521            0.0000000000
     26816      1714  TIP3      OH2           -31.1316573085        5.4439010908       28.3067860369  TIP3      1522            0.0000000000
     26817      1714  TIP3      H1            -31.0270978741        6.2856089386       27.8144835455  TIP3      1522            0.0000000000
     26818      1714  TIP3      H2            -31.5256935892        4.8943078876       27.6024261335  TIP3      1522            0.0000000000
     26819      1715  TIP3      OH2           -23.4034933095        5.5622529858       26.6794167197  TIP3      1523            0.0000000000
     26820      1715  TIP3      H1            -22.7385517752        5.2282539267       27.3247822323  TIP3      1523            0.0000000000
     26821      1715  TIP3      H2            -22.8432586604        6.1064821417       26.1027650863  TIP3      1523            0.0000000000
     26822      1716  TIP3      OH2           -34.5442452368        7.7889869481       28.9829994465  TIP3      1524            0.0000000000
     26823      1716  TIP3      H1            -33.8198197463        7.3145321408       29.4398576734  TIP3      1524            0.0000000000
     26824      1716  TIP3      H2            -34.3787220804        7.5296079717       28.0703389932  TIP3      1524            0.0000000000
     26825      1717  TIP3      OH2           -29.2976979419        9.4105926348       28.3486522269  TIP3      1525            0.0000000000
     26826      1717  TIP3      H1            -28.6709174043        8.8119595450       28.7576396774  TIP3      1525            0.0000000000
     26827      1717  TIP3      H2            -29.8843679113        8.8130149009       27.8414274315  TIP3      1525            0.0000000000
     26828      1718  TIP3      OH2           -18.3779636447        5.9780406080       33.7630762905  TIP3      1526            0.0000000000
     26829      1718  TIP3      H1            -18.9989621102        6.7316891541       33.6555674172  TIP3      1526            0.0000000000
     26830      1718  TIP3      H2            -18.3487910781        5.8832340647       34.7228833057  TIP3      1526            0.0000000000
     26831      1719  TIP3      OH2           -32.1998327460        4.3608524719       32.3291166989  TIP3      1527            0.0000000000
     26832      1719  TIP3      H1            -32.5039013254        4.9289141076       31.5894042661  TIP3      1527            0.0000000000
     26833      1719  TIP3      H2            -32.8857274544        4.5854829210       33.0071702042  TIP3      1527            0.0000000000
     26834      1720  TIP3      OH2           -24.9050878831       13.8500425728       25.8548506394  TIP3      1528            0.0000000000
     26835      1720  TIP3      H1            -25.2526813927       13.5859473694       24.9995947420  TIP3      1528            0.0000000000
     26836      1720  TIP3      H2            -25.2584755408       14.7617522140       25.9672378910  TIP3      1528            0.0000000000
     26837      1721  TIP3      OH2           -29.6836858322       12.0171558327       32.6299548889  TIP3      1529            0.0000000000
     26838      1721  TIP3      H1            -30.4199759559       12.6492174473       32.7764018152  TIP3      1529            0.0000000000
     26839      1721  TIP3      H2            -29.0082934264       12.6119883870       32.2760662441  TIP3      1529            0.0000000000
     26840      1722  TIP3      OH2           -21.5995352157        4.8909262495       28.6561271726  TIP3      1530            0.0000000000
     26841      1722  TIP3      H1            -21.8152225356        4.1204546122       29.1890942475  TIP3      1530            0.0000000000
     26842      1722  TIP3      H2            -20.9276973425        5.3292533376       29.2053381669  TIP3      1530            0.0000000000
     26843      1723  TIP3      OH2           -32.6829069663        6.1847705558       30.3743145683  TIP3      1531            0.0000000000
     26844      1723  TIP3      H1            -32.0713733115        6.8953939839       30.6865466604  TIP3      1531            0.0000000000
     26845      1723  TIP3      H2            -32.1418130606        5.8212772493       29.6243100799  TIP3      1531            0.0000000000
     26846      1724  TIP3      OH2           -31.2822509579       13.9966167629       33.4043426341  TIP3      1532            0.0000000000
     26847      1724  TIP3      H1            -31.3193682479       14.8999544399       33.0329525230  TIP3      1532            0.0000000000
     26848      1724  TIP3      H2            -32.1740070467       13.9193277566       33.8138379656  TIP3      1532            0.0000000000
     26849      1725  TIP3      OH2           -35.1993546314       13.6795147839       24.1843181720  TIP3      1533            0.0000000000
     26850      1725  TIP3      H1            -35.4227764182       13.9443168785       23.2941673403  TIP3      1533            0.0000000000
     26851      1725  TIP3      H2            -35.1152145748       14.4974963623       24.6954891002  TIP3      1533            0.0000000000
     26852      1726  TIP3      OH2           -21.5805370895       15.2919343155       30.9404924126  TIP3      1534            0.0000000000
     26853      1726  TIP3      H1            -22.5485873534       15.4009398099       31.0629173594  TIP3      1534            0.0000000000
     26854      1726  TIP3      H2            -21.3112335126       16.2096562964       30.7446896632  TIP3      1534            0.0000000000
     26855      1727  TIP3      OH2           -21.2566530313        3.5775229679       32.3306798437  TIP3      1535            0.0000000000
     26856      1727  TIP3      H1            -21.9858011635        4.2074627110       32.2467326872  TIP3      1535            0.0000000000
     26857      1727  TIP3      H2            -20.5486136144        3.9980876600       31.8053515097  TIP3      1535            0.0000000000
     26858      1728  TIP3      OH2           -28.2846106744        1.6989073380       29.7925287615  TIP3      1536            0.0000000000
     26859      1728  TIP3      H1            -28.4149894594        0.7329688801       29.7253421242  TIP3      1536            0.0000000000
     26860      1728  TIP3      H2            -29.1656013514        2.0004755975       30.0991088360  TIP3      1536            0.0000000000
     26861      1729  TIP3      OH2           -23.3120883122       17.0702657894       27.5470313483  TIP3      1537            0.0000000000
     26862      1729  TIP3      H1            -22.8807468791       16.3509069021       27.0394102150  TIP3      1537            0.0000000000
     26863      1729  TIP3      H2            -22.9085344353       17.8636048456       27.1395923326  TIP3      1537            0.0000000000
     26864      1730  TIP3      OH2           -22.1186175449       15.0111277882       26.0550402871  TIP3      1538            0.0000000000
     26865      1730  TIP3      H1            -22.3725376992       14.3019738955       25.4422388523  TIP3      1538            0.0000000000
     26866      1730  TIP3      H2            -22.0706103243       14.5107885333       26.8865238694  TIP3      1538            0.0000000000
     26867      1731  TIP3      OH2           -20.4906397181       13.5936969191       34.5430404832  TIP3      1539            0.0000000000
     26868      1731  TIP3      H1            -20.3459123269       12.9465335752       33.8173697221  TIP3      1539            0.0000000000
     26869      1731  TIP3      H2            -20.2929647948       14.4434637695       34.1116695848  TIP3      1539            0.0000000000
     26870      1732  TIP3      OH2           -25.9690627406       10.4759322982       24.2974399138  TIP3      1540            0.0000000000
     26871      1732  TIP3      H1            -26.7230267728       11.0009551413       23.9685542244  TIP3      1540            0.0000000000
     26872      1732  TIP3      H2            -25.2883373619       10.5885777632       23.6160489905  TIP3      1540            0.0000000000
     26873      1733  TIP3      OH2           -25.8674526493        9.0398854855       21.3124529890  TIP3      1541            0.0000000000
     26874      1733  TIP3      H1            -25.2295296067        8.9555316411       22.0284679911  TIP3      1541            0.0000000000
     26875      1733  TIP3      H2            -25.6598350540        8.3058736247       20.7272809835  TIP3      1541            0.0000000000
     26876      1734  TIP3      OH2           -18.6066754992        9.9079148718       32.5897965674  TIP3      1542            0.0000000000
     26877      1734  TIP3      H1            -19.2705852506       10.6255150484       32.6278665299  TIP3      1542            0.0000000000
     26878      1734  TIP3      H2            -18.1196478565       10.1370633174       31.7776648038  TIP3      1542            0.0000000000
     26879      1735  TIP3      OH2           -22.5882585019       10.6591637896       25.2059090036  TIP3      1543            0.0000000000
     26880      1735  TIP3      H1            -23.2868381440       10.9520657704       25.8399481452  TIP3      1543            0.0000000000
     26881      1735  TIP3      H2            -22.0761940409       10.0442173631       25.7557016016  TIP3      1543            0.0000000000
     26882      1736  TIP3      OH2           -22.6262633403        8.8673619403       34.3429832069  TIP3      1544            0.0000000000
     26883      1736  TIP3      H1            -22.6169607402        9.6836008497       34.8696556583  TIP3      1544            0.0000000000
     26884      1736  TIP3      H2            -23.2574798160        9.1591307514       33.6540805335  TIP3      1544            0.0000000000
     26885      1737  TIP3      OH2           -31.2838490863       10.5669397959       27.0345138798  TIP3      1545            0.0000000000
     26886      1737  TIP3      H1            -31.2209185105       10.8889881947       26.1153356862  TIP3      1545            0.0000000000
     26887      1737  TIP3      H2            -30.3744686008       10.7017253637       27.3945404586  TIP3      1545            0.0000000000
     26888      1738  TIP3      OH2           -29.4515145034       15.0322413981       29.9481761826  TIP3      1546            0.0000000000
     26889      1738  TIP3      H1            -29.6648279807       14.4183815067       29.1746981803  TIP3      1546            0.0000000000
     26890      1738  TIP3      H2            -28.8211193565       14.3926020807       30.3204526089  TIP3      1546            0.0000000000
     26891      1739  TIP3      OH2           -30.5508328932       10.0612999942       30.8358881220  TIP3      1547            0.0000000000
     26892      1739  TIP3      H1            -30.0817817331       10.2446331895       29.9897781980  TIP3      1547            0.0000000000
     26893      1739  TIP3      H2            -30.2340903149       10.8026466286       31.3915119776  TIP3      1547            0.0000000000
     26894      1740  TIP3      OH2           -24.1980129827       15.6724894783       31.5079945993  TIP3      1548            0.0000000000
     26895      1740  TIP3      H1            -24.4851696948       16.3084523006       32.1691856439  TIP3      1548            0.0000000000
     26896      1740  TIP3      H2            -24.4533797547       14.8184867360       31.9337139334  TIP3      1548            0.0000000000
     26897      1741  TIP3      OH2           -29.6561438284       14.5311305296       35.5015458803  TIP3      1549            0.0000000000
     26898      1741  TIP3      H1            -30.0624214016       15.2793807621       35.9850310244  TIP3      1549            0.0000000000
     26899      1741  TIP3      H2            -30.3291108266       14.3396151404       34.8027043616  TIP3      1549            0.0000000000
     26900      1742  TIP3      OH2           -23.6506805114        9.8822427679       22.8810096059  TIP3      1550            0.0000000000
     26901      1742  TIP3      H1            -23.1467655464       10.0691949064       23.7182035209  TIP3      1550            0.0000000000
     26902      1742  TIP3      H2            -23.1913963523       10.4472462138       22.2611644135  TIP3      1550            0.0000000000
     26903      1743  TIP3      OH2           -32.7196598852       10.7116710266       34.6757264842  TIP3      1551            0.0000000000
     26904      1743  TIP3      H1            -32.6771221680       11.3858146710       35.3767030745  TIP3      1551            0.0000000000
     26905      1743  TIP3      H2            -33.6597817141       10.7993697239       34.4417331640  TIP3      1551            0.0000000000
     26906      1744  TIP3      OH2           -25.9781813287       16.6062106831       26.3578790001  TIP3      1552            0.0000000000
     26907      1744  TIP3      H1            -25.5292327924       16.9116888037       27.1565855651  TIP3      1552            0.0000000000
     26908      1744  TIP3      H2            -26.5285949826       17.3716514308       26.1501470070  TIP3      1552            0.0000000000
     26909      1745  TIP3      OH2           -31.4109948804       16.5610387420       36.2448526793  TIP3      1553            0.0000000000
     26910      1745  TIP3      H1            -31.4774025917       16.4705143911       35.2757590965  TIP3      1553            0.0000000000
     26911      1745  TIP3      H2            -32.3460773684       16.4384469334       36.5061719968  TIP3      1553            0.0000000000
     26912      1746  TIP3      OH2           -31.9152765785       10.3615051562       24.5757640381  TIP3      1554            0.0000000000
     26913      1746  TIP3      H1            -32.2675018577       11.1868502045       24.2039526854  TIP3      1554            0.0000000000
     26914      1746  TIP3      H2            -32.6464772843        9.7540594273       24.5307413374  TIP3      1554            0.0000000000
     26915      1747  TIP3      OH2           -35.2987556513       12.6781628534       33.3901400296  TIP3      1555            0.0000000000
     26916      1747  TIP3      H1            -36.0797364224       12.7993745668       32.8097913159  TIP3      1555            0.0000000000
     26917      1747  TIP3      H2            -35.6778199891       11.8966312505       33.8569608838  TIP3      1555            0.0000000000
     26918      1748  TIP3      OH2           -35.8285494734       15.7642529197       30.1703704478  TIP3      1556            0.0000000000
     26919      1748  TIP3      H1            -34.9919613467       15.3733465898       30.4386641666  TIP3      1556            0.0000000000
     26920      1748  TIP3      H2            -36.1077124043       16.2530801551       30.9592450481  TIP3      1556            0.0000000000
     26921      1749  TIP3      OH2           -17.8872266512       16.2494414852       36.0929587635  TIP3      1557            0.0000000000
     26922      1749  TIP3      H1            -17.9961959835       15.2879842187       36.1010701795  TIP3      1557            0.0000000000
     26923      1749  TIP3      H2            -18.7416039467       16.4960107926       36.5249605327  TIP3      1557            0.0000000000
     26924      1750  TIP3      OH2           -26.9213582757       15.7936836133       34.9893781959  TIP3      1558            0.0000000000
     26925      1750  TIP3      H1            -26.8633071927       16.6298707335       35.5083667085  TIP3      1558            0.0000000000
     26926      1750  TIP3      H2            -27.7964107314       15.4348883853       35.2341816385  TIP3      1558            0.0000000000
     26927      1751  TIP3      OH2           -26.4322058293       19.5391007357       24.7622226433  TIP3      1559            0.0000000000
     26928      1751  TIP3      H1            -26.6269783078       19.4833991143       23.8224024524  TIP3      1559            0.0000000000
     26929      1751  TIP3      H2            -26.4900835541       20.4948578396       24.9596457014  TIP3      1559            0.0000000000
     26930      1752  TIP3      OH2           -32.8608193726       18.4122663908       26.6210578196  TIP3      1560            0.0000000000
     26931      1752  TIP3      H1            -32.7003758355       17.9761159802       27.4853896075  TIP3      1560            0.0000000000
     26932      1752  TIP3      H2            -33.6865004432       17.9904411495       26.3584974649  TIP3      1560            0.0000000000
     26933      1753  TIP3      OH2           -23.4776359715       18.7102957779       21.7781750725  TIP3      1561            0.0000000000
     26934      1753  TIP3      H1            -23.0031681722       17.9821991882       21.3246094821  TIP3      1561            0.0000000000
     26935      1753  TIP3      H2            -23.4126122939       18.4562636763       22.7120115371  TIP3      1561            0.0000000000
     26936      1754  TIP3      OH2           -23.7573167204       18.6672626082       24.5692602685  TIP3      1562            0.0000000000
     26937      1754  TIP3      H1            -24.7083801953       18.7661076065       24.7379965928  TIP3      1562            0.0000000000
     26938      1754  TIP3      H2            -23.4815535664       17.9202018083       25.1135995044  TIP3      1562            0.0000000000
     26939      1755  TIP3      OH2           -20.7403704236        7.7208621509       36.5767185111  TIP3      1563            0.0000000000
     26940      1755  TIP3      H1            -21.2099310724        8.1725375212       35.8600870957  TIP3      1563            0.0000000000
     26941      1755  TIP3      H2            -20.7479637677        6.7978254285       36.2833688655  TIP3      1563            0.0000000000
     26942      1756  TIP3      OH2           -33.5846223593       14.1984638793       34.6551604965  TIP3      1564            0.0000000000
     26943      1756  TIP3      H1            -33.3921102173       13.7562358217       35.5019387786  TIP3      1564            0.0000000000
     26944      1756  TIP3      H2            -34.4183232635       13.7485998732       34.3776596433  TIP3      1564            0.0000000000
     26945      1757  TIP3      OH2           -30.9110748467        2.6038839766       30.5500409420  TIP3      1565            0.0000000000
     26946      1757  TIP3      H1            -31.8135178087        2.4873740528       30.1772804299  TIP3      1565            0.0000000000
     26947      1757  TIP3      H2            -31.0437257291        3.4353567458       31.0312564572  TIP3      1565            0.0000000000
     26948      1758  TIP3      OH2           -26.2746791324        2.2699460674       33.9115117188  TIP3      1566            0.0000000000
     26949      1758  TIP3      H1            -25.8798938110        1.8493929136       34.6983167920  TIP3      1566            0.0000000000
     26950      1758  TIP3      H2            -27.2458734285        2.1434376690       34.0542634447  TIP3      1566            0.0000000000
     26951      1759  TIP3      OH2           -22.9824155981        6.1102088579       34.7963919444  TIP3      1567            0.0000000000
     26952      1759  TIP3      H1            -23.5385961128        5.9015844359       35.5886027652  TIP3      1567            0.0000000000
     26953      1759  TIP3      H2            -23.1651190815        7.0374074599       34.5761809045  TIP3      1567            0.0000000000
     26954      1760  TIP3      OH2           -30.8290439109        7.5700166977       31.7832959833  TIP3      1568            0.0000000000
     26955      1760  TIP3      H1            -31.5512730841        7.5688346176       32.4375075661  TIP3      1568            0.0000000000
     26956      1760  TIP3      H2            -30.8436434802        8.4904315558       31.4187354056  TIP3      1568            0.0000000000
     26957      1761  TIP3      OH2           -30.8224340166        7.6193621087       26.6711313313  TIP3      1569            0.0000000000
     26958      1761  TIP3      H1            -31.7741465992        7.4655082424       26.5148398111  TIP3      1569            0.0000000000
     26959      1761  TIP3      H2            -30.4528802374        7.4100459877       25.7979025103  TIP3      1569            0.0000000000
     26960      1762  TIP3      OH2           -25.3367755655        8.1561608391       25.3870632448  TIP3      1570            0.0000000000
     26961      1762  TIP3      H1            -25.7377224493        9.0072815524       25.1020046027  TIP3      1570            0.0000000000
     26962      1762  TIP3      H2            -24.6119271954        8.0404760688       24.7608315211  TIP3      1570            0.0000000000
     26963      1763  TIP3      OH2           -26.2720990710        8.3994049009       36.8700814567  TIP3      1571            0.0000000000
     26964      1763  TIP3      H1            -26.8014618984        7.6253233669       37.1790201421  TIP3      1571            0.0000000000
     26965      1763  TIP3      H2            -25.4369842984        8.2767371993       37.3514195381  TIP3      1571            0.0000000000
     26966      1764  TIP3      OH2           -24.3038811974        7.6793897380       28.2753011169  TIP3      1572            0.0000000000
     26967      1764  TIP3      H1            -24.5764963548        8.2426050267       27.5332097754  TIP3      1572            0.0000000000
     26968      1764  TIP3      H2            -24.1982547372        6.8289049701       27.8054713600  TIP3      1572            0.0000000000
     26969      1765  TIP3      OH2           -33.1676266167        7.8152223449       33.4908068885  TIP3      1573            0.0000000000
     26970      1765  TIP3      H1            -33.1598748981        8.2356641793       34.3656784897  TIP3      1573            0.0000000000
     26971      1765  TIP3      H2            -33.6598763601        7.0022397059       33.6752393798  TIP3      1573            0.0000000000
     26972      1766  TIP3      OH2           -36.1726324695        5.2233852630       27.2600615160  TIP3      1574            0.0000000000
     26973      1766  TIP3      H1            -35.8393518520        4.8974105294       28.1258412064  TIP3      1574            0.0000000000
     26974      1766  TIP3      H2            -36.0173331316        4.4777810484       26.6848314789  TIP3      1574            0.0000000000
     26975      1767  TIP3      OH2           -25.0990348379        9.2679402518       32.8424801173  TIP3      1575            0.0000000000
     26976      1767  TIP3      H1            -24.7274679480        8.5866455121       32.2469606193  TIP3      1575            0.0000000000
     26977      1767  TIP3      H2            -25.5623785004        8.7358098390       33.5137677909  TIP3      1575            0.0000000000
     26978      1768  TIP3      OH2           -28.3007016545        5.2437085369       27.6767247149  TIP3      1576            0.0000000000
     26979      1768  TIP3      H1            -29.2365080797        5.2635013659       27.9652240017  TIP3      1576            0.0000000000
     26980      1768  TIP3      H2            -27.8165727110        5.0824274503       28.4988493093  TIP3      1576            0.0000000000
     26981      1769  TIP3      OH2           -33.4863607804        6.7822761035       26.5332293405  TIP3      1577            0.0000000000
     26982      1769  TIP3      H1            -34.3626258220        6.9541219619       26.1395478311  TIP3      1577            0.0000000000
     26983      1769  TIP3      H2            -33.2157146311        5.9424821569       26.1233494091  TIP3      1577            0.0000000000
     26984      1770  TIP3      OH2           -29.8772461572        6.8268003363       24.1469761373  TIP3      1578            0.0000000000
     26985      1770  TIP3      H1            -28.9223941070        6.9376297182       24.3266033719  TIP3      1578            0.0000000000
     26986      1770  TIP3      H2            -30.0907808159        7.5282655990       23.5056525973  TIP3      1578            0.0000000000
     26987      1771  TIP3      OH2           -23.8897334022        4.4731707054       30.9084339307  TIP3      1579            0.0000000000
     26988      1771  TIP3      H1            -24.5748837745        4.5314713030       31.6126788428  TIP3      1579            0.0000000000
     26989      1771  TIP3      H2            -24.4013889114        4.2296638215       30.1239592642  TIP3      1579            0.0000000000
     26990      1772  TIP3      OH2           -31.1175504601        7.9499063800       21.7357819030  TIP3      1580            0.0000000000
     26991      1772  TIP3      H1            -31.6781509529        7.7111219007       21.0053151333  TIP3      1580            0.0000000000
     26992      1772  TIP3      H2            -30.3100161119        8.2837518121       21.3021590810  TIP3      1580            0.0000000000
     26993      1773  TIP3      OH2           -20.6916984788       20.1202716456       37.2670178850  TIP3      1581            0.0000000000
     26994      1773  TIP3      H1            -20.4182687366       20.4919651908       36.4071237063  TIP3      1581            0.0000000000
     26995      1773  TIP3      H2            -19.9644413561       20.4332799501       37.8314247105  TIP3      1581            0.0000000000
     26996      1774  TIP3      OH2           -33.0258216829       12.5774109148       36.8211085102  TIP3      1582            0.0000000000
     26997      1774  TIP3      H1            -32.3030517181       12.8239698937       37.4323072249  TIP3      1582            0.0000000000
     26998      1774  TIP3      H2            -33.7920479965       12.6987561929       37.4030041599  TIP3      1582            0.0000000000
     26999      1775  TIP3      OH2           -27.0168417426        7.9898111330       29.5658963006  TIP3      1583            0.0000000000
     27000      1775  TIP3      H1            -26.4132999591        7.4628941790       29.0331346424  TIP3      1583            0.0000000000
     27001      1775  TIP3      H2            -27.1590669061        7.4474617925       30.3498124840  TIP3      1583            0.0000000000
     27002      1776  TIP3      OH2           -32.0155802283        4.1620558182       25.9522327004  TIP3      1584            0.0000000000
     27003      1776  TIP3      H1            -32.3130099419        3.2352436460       25.9707456242  TIP3      1584            0.0000000000
     27004      1776  TIP3      H2            -31.2093182881        4.0655742656       25.4292013947  TIP3      1584            0.0000000000
     27005      1777  TIP3      OH2           -28.3742923317        6.3285016472       31.9819479464  TIP3      1585            0.0000000000
     27006      1777  TIP3      H1            -29.2015008156        6.8434486426       32.0687427952  TIP3      1585            0.0000000000
     27007      1777  TIP3      H2            -27.8225051000        6.6777621023       32.7052242529  TIP3      1585            0.0000000000
     27008      1778  TIP3      OH2           -20.6081640995       11.7459614610       32.4761038245  TIP3      1586            0.0000000000
     27009      1778  TIP3      H1            -20.0387439027       12.2287407837       31.8505531330  TIP3      1586            0.0000000000
     27010      1778  TIP3      H2            -21.4663684929       11.8027231738       32.0081017123  TIP3      1586            0.0000000000
     27011      1779  TIP3      OH2           -23.9398792325        5.3781083804       21.8320774443  TIP3      1587            0.0000000000
     27012      1779  TIP3      H1            -24.8836834493        5.4966991760       21.7133533430  TIP3      1587            0.0000000000
     27013      1779  TIP3      H2            -23.6301939159        6.2232560174       22.2052535195  TIP3      1587            0.0000000000
     27014      1780  TIP3      OH2           -26.2953552844       12.8080906683       34.9103677315  TIP3      1588            0.0000000000
     27015      1780  TIP3      H1            -26.6491928698       12.3905919131       35.7034719928  TIP3      1588            0.0000000000
     27016      1780  TIP3      H2            -26.5480862542       13.7340462533       35.0097351125  TIP3      1588            0.0000000000
     27017      1781  TIP3      OH2           -23.2005842577        7.2870791629       23.4915683031  TIP3      1589            0.0000000000
     27018      1781  TIP3      H1            -22.3240558961        7.1367689772       23.9085065493  TIP3      1589            0.0000000000
     27019      1781  TIP3      H2            -23.1224063796        8.1239486723       23.0148981899  TIP3      1589            0.0000000000
     27020      1782  TIP3      OH2           -32.8999528367       11.8043853765       29.4756454670  TIP3      1590            0.0000000000
     27021      1782  TIP3      H1            -32.0968849572       11.9296683463       28.8895180469  TIP3      1590            0.0000000000
     27022      1782  TIP3      H2            -32.5717370888       11.0466085911       29.9626160858  TIP3      1590            0.0000000000
     27023      1783  TIP3      OH2           -35.7166449110       10.3324999791       34.7382985858  TIP3      1591            0.0000000000
     27024      1783  TIP3      H1            -35.4598882978        9.8932717847       35.5718870074  TIP3      1591            0.0000000000
     27025      1783  TIP3      H2            -36.3056090075        9.6941013419       34.3136692818  TIP3      1591            0.0000000000
     27026      1784  TIP3      OH2           -28.6770919289        9.8955322879       36.9224246327  TIP3      1592            0.0000000000
     27027      1784  TIP3      H1            -28.9900941697        9.6092174754       36.0528573690  TIP3      1592            0.0000000000
     27028      1784  TIP3      H2            -27.7469109815        9.5932150793       36.9133550025  TIP3      1592            0.0000000000
     27029      1785  TIP3      OH2           -23.9954686275       15.2394679898       34.8614154831  TIP3      1593            0.0000000000
     27030      1785  TIP3      H1            -24.9206298768       15.4214794666       34.6283056687  TIP3      1593            0.0000000000
     27031      1785  TIP3      H2            -24.0250023008       15.5278989605       35.7935626490  TIP3      1593            0.0000000000
     27032      1786  TIP3      OH2           -18.3891135981        7.4580005223       23.2727739165  TIP3      1594            0.0000000000
     27033      1786  TIP3      H1            -18.8641261694        7.0719082200       22.5272020717  TIP3      1594            0.0000000000
     27034      1786  TIP3      H2            -18.2526758382        8.3651012097       22.9639046496  TIP3      1594            0.0000000000
     27035      1787  TIP3      OH2           -18.3307980649       13.2795353908       36.0613919781  TIP3      1595            0.0000000000
     27036      1787  TIP3      H1            -19.2226909358       13.5057508143       35.6961578915  TIP3      1595            0.0000000000
     27037      1787  TIP3      H2            -17.7848430525       13.2393869449       35.2514169608  TIP3      1595            0.0000000000
     27038      1788  TIP3      OH2           -22.8228690133       11.0698678913       30.7525157845  TIP3      1596            0.0000000000
     27039      1788  TIP3      H1            -23.7677428529       10.8543979624       30.6533538043  TIP3      1596            0.0000000000
     27040      1788  TIP3      H2            -22.3958573501       10.3034150084       30.3283963724  TIP3      1596            0.0000000000
     27041      1789  TIP3      OH2           -30.3127759721       15.4745473911       26.8742903542  TIP3      1597            0.0000000000
     27042      1789  TIP3      H1            -29.7881650205       16.2272991132       26.5750145967  TIP3      1597            0.0000000000
     27043      1789  TIP3      H2            -31.1918129028       15.6270497796       26.5202694517  TIP3      1597            0.0000000000
     27044      1790  TIP3      OH2           -28.7880798350       13.0790988414       26.2022235834  TIP3      1598            0.0000000000
     27045      1790  TIP3      H1            -29.1296556209       13.9712835589       26.3970300232  TIP3      1598            0.0000000000
     27046      1790  TIP3      H2            -29.4486385133       12.6303099988       26.7796678254  TIP3      1598            0.0000000000
     27047      1791  TIP3      OH2           -28.4339120463       17.2414914825       32.7832979146  TIP3      1599            0.0000000000
     27048      1791  TIP3      H1            -27.9768017978       18.0389244948       32.4776723217  TIP3      1599            0.0000000000
     27049      1791  TIP3      H2            -27.8223874716       16.9086447829       33.4632236965  TIP3      1599            0.0000000000
     27050      1792  TIP3      OH2           -30.2008065706       18.0608114053       25.9267540578  TIP3      1600            0.0000000000
     27051      1792  TIP3      H1            -31.1619402358       18.1980391905       26.0443077951  TIP3      1600            0.0000000000
     27052      1792  TIP3      H2            -29.8372896803       18.9003306625       26.2386022377  TIP3      1600            0.0000000000
     27053      1793  TIP3      OH2           -24.9078936730       13.2512811809       32.4076930503  TIP3      1601            0.0000000000
     27054      1793  TIP3      H1            -25.2433228942       13.0557615241       33.3077976009  TIP3      1601            0.0000000000
     27055      1793  TIP3      H2            -24.2712620568       12.5381657530       32.2393604252  TIP3      1601            0.0000000000
     27056      1794  TIP3      OH2           -22.1040600787       17.8311994477       34.8984150820  TIP3      1602            0.0000000000
     27057      1794  TIP3      H1            -22.7875030344       17.3318600149       34.4118883063  TIP3      1602            0.0000000000
     27058      1794  TIP3      H2            -21.9134112362       18.5286386368       34.2364638398  TIP3      1602            0.0000000000
     27059      1795  TIP3      OH2           -34.0365724826        5.0900852769       34.2446383491  TIP3      1603            0.0000000000
     27060      1795  TIP3      H1            -34.9274372764        5.4549990626       34.3215603961  TIP3      1603            0.0000000000
     27061      1795  TIP3      H2            -34.1513473884        4.2517633240       34.7279174660  TIP3      1603            0.0000000000
     27062      1796  TIP3      OH2           -21.8332305503       12.9268293716       23.7773673747  TIP3      1604            0.0000000000
     27063      1796  TIP3      H1            -22.0447908872       12.1372245704       24.2963633545  TIP3      1604            0.0000000000
     27064      1796  TIP3      H2            -20.8729134908       13.0153710259       23.8934024697  TIP3      1604            0.0000000000
     27065      1797  TIP3      OH2           -34.2760327568       16.9428901884       32.6846031477  TIP3      1605            0.0000000000
     27066      1797  TIP3      H1            -34.1593629109       15.9812694527       32.7212881839  TIP3      1605            0.0000000000
     27067      1797  TIP3      H2            -34.1537706727       17.1349420062       33.6147654211  TIP3      1605            0.0000000000
     27068      1798  TIP3      OH2           -33.1950719836       12.1658125731       22.9223405619  TIP3      1606            0.0000000000
     27069      1798  TIP3      H1            -33.8543167888       12.5706594373       23.5036081052  TIP3      1606            0.0000000000
     27070      1798  TIP3      H2            -32.6051434249       12.8896019098       22.6559710723  TIP3      1606            0.0000000000
     27071      1799  TIP3      OH2           -25.3078275880        4.8541185997       33.2393083531  TIP3      1607            0.0000000000
     27072      1799  TIP3      H1            -24.5954696069        4.9134876677       33.8850551212  TIP3      1607            0.0000000000
     27073      1799  TIP3      H2            -25.6907895842        3.9764579383       33.4381008654  TIP3      1607            0.0000000000
     27074      1800  TIP3      OH2           -24.5622104224        4.4472319287       24.3513324419  TIP3      1608            0.0000000000
     27075      1800  TIP3      H1            -24.3201840030        4.8924687922       23.5224594154  TIP3      1608            0.0000000000
     27076      1800  TIP3      H2            -23.9796444070        4.8782512081       24.9878182942  TIP3      1608            0.0000000000
     27077      1801  TIP3      OH2           -27.3433951498        6.1845340781       25.1324983450  TIP3      1609            0.0000000000
     27078      1801  TIP3      H1            -26.5519177377        6.7576117444       25.1742025092  TIP3      1609            0.0000000000
     27079      1801  TIP3      H2            -27.6106405636        6.0703415054       26.0643106281  TIP3      1609            0.0000000000
     27080      1802  TIP3      OH2           -26.7751176291        7.2055590034       34.3402498673  TIP3      1610            0.0000000000
     27081      1802  TIP3      H1            -26.6994563978        7.7608189283       35.1381667119  TIP3      1610            0.0000000000
     27082      1802  TIP3      H2            -26.1166414414        6.5053626755       34.4377133285  TIP3      1610            0.0000000000
     27083      1803  TIP3      OH2           -26.4645115158        3.2493515407       26.0271555005  TIP3      1611            0.0000000000
     27084      1803  TIP3      H1            -26.7957489109        3.8822591770       26.6854728851  TIP3      1611            0.0000000000
     27085      1803  TIP3      H2            -25.7737616608        3.7988547571       25.5841469517  TIP3      1611            0.0000000000
     27086      1804  TIP3      OH2           -30.8202633091        4.3326794976       22.7865454560  TIP3      1612            0.0000000000
     27087      1804  TIP3      H1            -30.8675851487        5.2447716381       23.1162101557  TIP3      1612            0.0000000000
     27088      1804  TIP3      H2            -29.9071776638        4.0877034855       23.0210629505  TIP3      1612            0.0000000000
     27089      1805  TIP3      OH2           -20.5960567814        5.0754297909       35.1843810863  TIP3      1613            0.0000000000
     27090      1805  TIP3      H1            -21.5262941308        5.3841154397       35.0576131041  TIP3      1613            0.0000000000
     27091      1805  TIP3      H2            -20.2965944647        5.0610696888       34.2603278386  TIP3      1613            0.0000000000
     27092      1806  TIP3      OH2           -21.9911615125        8.8579484386       29.1999034366  TIP3      1614            0.0000000000
     27093      1806  TIP3      H1            -22.8126158544        8.4121031472       28.9253594345  TIP3      1614            0.0000000000
     27094      1806  TIP3      H2            -21.5121617601        8.1711558407       29.7181777036  TIP3      1614            0.0000000000
     27095      1807  TIP3      OH2           -20.9212659696       18.1122284468       30.8689404408  TIP3      1615            0.0000000000
     27096      1807  TIP3      H1            -21.0171399340       18.7978686987       30.1792519670  TIP3      1615            0.0000000000
     27097      1807  TIP3      H2            -19.9582751780       18.1724407808       31.0454136913  TIP3      1615            0.0000000000
     27098      1808  TIP3      OH2           -33.3956848023        2.2195172431       29.6550020908  TIP3      1616            0.0000000000
     27099      1808  TIP3      H1            -33.6257564936        2.2584602095       28.6948160426  TIP3      1616            0.0000000000
     27100      1808  TIP3      H2            -33.8531454474        1.3978797741       29.9228514003  TIP3      1616            0.0000000000
     27101      1809  TIP3      OH2           -34.4963508151       16.1714096815       25.7595941509  TIP3      1617            0.0000000000
     27102      1809  TIP3      H1            -35.3327254263       16.6364765470       25.7930956789  TIP3      1617            0.0000000000
     27103      1809  TIP3      H2            -33.9321407043       16.6667494984       25.1574679196  TIP3      1617            0.0000000000
     27104      1810  TIP3      OH2           -34.9944701015       18.8784332600       37.0673710116  TIP3      1618            0.0000000000
     27105      1810  TIP3      H1            -34.5648573212       18.6242357625       37.9122806697  TIP3      1618            0.0000000000
     27106      1810  TIP3      H2            -35.4871108540       18.0316573914       36.9292994427  TIP3      1618            0.0000000000
     27107      1811  TIP3      OH2           -30.5853156214       17.7189540114       38.7160689052  TIP3      1619            0.0000000000
     27108      1811  TIP3      H1            -29.8232648708       17.2254130438       39.0500467748  TIP3      1619            0.0000000000
     27109      1811  TIP3      H2            -30.6196485327       17.4235093883       37.7828726083  TIP3      1619            0.0000000000
     27110      1812  TIP3      OH2           -24.0942014503       16.1184545946       37.4489985021  TIP3      1620            0.0000000000
     27111      1812  TIP3      H1            -24.3998536365       15.2265797375       37.7156255718  TIP3      1620            0.0000000000
     27112      1812  TIP3      H2            -23.3118115604       16.2350240864       38.0228843661  TIP3      1620            0.0000000000
     27113      1813  TIP3      OH2           -35.4094422708       12.5639773628       38.0957410546  TIP3      1621            0.0000000000
     27114      1813  TIP3      H1            -35.1624721757       11.6888057880       37.7378555749  TIP3      1621            0.0000000000
     27115      1813  TIP3      H2            -36.0908976371       12.8620019328       37.4834943642  TIP3      1621            0.0000000000
     27116      1814  TIP3      OH2           -28.6257858922       12.5701969309       37.4587977255  TIP3      1622            0.0000000000
     27117      1814  TIP3      H1            -28.9789286665       12.8786260308       36.6047504299  TIP3      1622            0.0000000000
     27118      1814  TIP3      H2            -28.5537292581       11.5926622397       37.3563544501  TIP3      1622            0.0000000000
     27119      1815  TIP3      OH2           -22.9409032224       12.4347470708       34.8760672064  TIP3      1623            0.0000000000
     27120      1815  TIP3      H1            -22.1578442281       13.0233849140       34.8056130194  TIP3      1623            0.0000000000
     27121      1815  TIP3      H2            -23.6455494199       13.0978279666       34.9148132048  TIP3      1623            0.0000000000
     27122      1816  TIP3      OH2           -34.4936284322        9.8084725579       37.4671271920  TIP3      1624            0.0000000000
     27123      1816  TIP3      H1            -34.0250286330        8.9578591742       37.3845473248  TIP3      1624            0.0000000000
     27124      1816  TIP3      H2            -34.6675943492        9.8168236986       38.4220133299  TIP3      1624            0.0000000000
     27125      1817  TIP3      OH2           -30.5371293477        8.7579771772       34.8378466725  TIP3      1625            0.0000000000
     27126      1817  TIP3      H1            -31.1430579631        9.4696189400       35.1003387932  TIP3      1625            0.0000000000
     27127      1817  TIP3      H2            -30.1477737935        9.1251023759       34.0250766445  TIP3      1625            0.0000000000
     27128      1818  TIP3      OH2           -28.7477524937        9.1418799944       20.7352923523  TIP3      1626            0.0000000000
     27129      1818  TIP3      H1            -28.9123647846        9.0084220471       19.7985739135  TIP3      1626            0.0000000000
     27130      1818  TIP3      H2            -27.7795867547        9.2432407839       20.8091859511  TIP3      1626            0.0000000000
     27131      1819  TIP3      OH2           -25.4717993680       11.3239667339       38.2345595217  TIP3      1627            0.0000000000
     27132      1819  TIP3      H1            -24.5203497081       11.3030250069       38.0541903863  TIP3      1627            0.0000000000
     27133      1819  TIP3      H2            -25.6328757333       10.5374284694       38.7758260896  TIP3      1627            0.0000000000
     27134      1820  TIP3      OH2           -30.1111746693        6.1467651307       35.8842565731  TIP3      1628            0.0000000000
     27135      1820  TIP3      H1            -30.0172872004        5.4241932888       35.2382098945  TIP3      1628            0.0000000000
     27136      1820  TIP3      H2            -30.1954393608        6.9501774045       35.3348635060  TIP3      1628            0.0000000000
     27137      1821  TIP3      OH2           -29.7284666216        4.5155266957       33.4447515089  TIP3      1629            0.0000000000
     27138      1821  TIP3      H1            -29.2176244378        4.9831054467       32.7411624599  TIP3      1629            0.0000000000
     27139      1821  TIP3      H2            -30.6210753596        4.4335174813       33.0331696598  TIP3      1629            0.0000000000
     27140      1822  TIP3      OH2           -28.1921440216       10.0014427155       33.6821405838  TIP3      1630            0.0000000000
     27141      1822  TIP3      H1            -27.4356435340        9.8360888989       33.1108506780  TIP3      1630            0.0000000000
     27142      1822  TIP3      H2            -28.5570270960       10.8370075588       33.3373877041  TIP3      1630            0.0000000000
     27143      1823  TIP3      OH2           -23.7919138552        7.7479199283       38.6502493948  TIP3      1631            0.0000000000
     27144      1823  TIP3      H1            -23.5711026308        6.8076019906       38.5697086815  TIP3      1631            0.0000000000
     27145      1823  TIP3      H2            -22.9217463717        8.1766789324       38.6629192208  TIP3      1631            0.0000000000
     27146      1824  TIP3      OH2           -22.4522378066       10.5558233271       36.8306658480  TIP3      1632            0.0000000000
     27147      1824  TIP3      H1            -22.7079185347       11.2689857663       36.2045689306  TIP3      1632            0.0000000000
     27148      1824  TIP3      H2            -21.4994122130       10.5124747833       36.6104186826  TIP3      1632            0.0000000000
     27149      1825  TIP3      OH2           -31.6845296272        7.3780765137       37.8392605036  TIP3      1633            0.0000000000
     27150      1825  TIP3      H1            -32.4608460439        6.8084942504       37.6386270322  TIP3      1633            0.0000000000
     27151      1825  TIP3      H2            -31.0422988485        7.0271538680       37.1900904654  TIP3      1633            0.0000000000
     27152      1826  TIP3      OH2           -28.9471210511        1.9500039961       33.8505184100  TIP3      1634            0.0000000000
     27153      1826  TIP3      H1            -29.1150153418        2.9139924682       33.7391045453  TIP3      1634            0.0000000000
     27154      1826  TIP3      H2            -29.6920474847        1.5879981960       33.3386038090  TIP3      1634            0.0000000000
     27155      1827  TIP3      OH2           -27.6659168420        6.2814607131       37.4685192207  TIP3      1635            0.0000000000
     27156      1827  TIP3      H1            -27.9859219769        6.0622266739       38.3635302930  TIP3      1635            0.0000000000
     27157      1827  TIP3      H2            -28.4495988733        6.0913855520       36.9140290918  TIP3      1635            0.0000000000
     27158      1828  TIP3      OH2           -24.9542910081        5.4172569936       36.5250792694  TIP3      1636            0.0000000000
     27159      1828  TIP3      H1            -25.9147478706        5.4749531156       36.6610809058  TIP3      1636            0.0000000000
     27160      1828  TIP3      H2            -24.6781842559        4.7911126102       37.2207235678  TIP3      1636            0.0000000000
     27161      1829  TIP3      OH2           -23.3905198776        4.0522100592       38.4556091295  TIP3      1637            0.0000000000
     27162      1829  TIP3      H1            -23.4185193827        3.0756770422       38.4867810348  TIP3      1637            0.0000000000
     27163      1829  TIP3      H2            -23.6353868416        4.3425419811       39.3663261744  TIP3      1637            0.0000000000
     27164      1830  TIP3      OH2           -33.4411827750        5.2978303738       37.5970902402  TIP3      1638            0.0000000000
     27165      1830  TIP3      H1            -33.3371286413        4.5615548700       36.9671032363  TIP3      1638            0.0000000000
     27166      1830  TIP3      H2            -33.6577275557        4.8490400611       38.4393319230  TIP3      1638            0.0000000000
     27167      1831  TIP3      OH2           -28.7265811652        1.3328430116       36.5367870532  TIP3      1639            0.0000000000
     27168      1831  TIP3      H1            -28.0381120149        0.6365395279       36.5080058460  TIP3      1639            0.0000000000
     27169      1831  TIP3      H2            -28.8358428661        1.4980813465       35.5812545547  TIP3      1639            0.0000000000
     27170      1832  TIP3      OH2           -28.3817023499        2.9425567771       38.6346148025  TIP3      1640            0.0000000000
     27171      1832  TIP3      H1            -28.5354504393        2.4474133327       37.7940136109  TIP3      1640            0.0000000000
     27172      1832  TIP3      H2            -28.9554027931        3.7253109293       38.5270050205  TIP3      1640            0.0000000000
     27173      1833  TIP3      OH2            36.8406772338       20.0342959895       26.1320612405  TIP3      1641            0.0000000000
     27174      1833  TIP3      H1             35.9628034959       19.7559993656       25.7840549874  TIP3      1641            0.0000000000
     27175      1833  TIP3      H2             36.9426104940       19.3694685845       26.8566283749  TIP3      1641            0.0000000000
     27176      1834  TIP3      OH2           -35.7108903879       17.9980919512       28.0887183636  TIP3      1642            0.0000000000
     27177      1834  TIP3      H1            -36.0801580424       17.1150006046       28.3154589453  TIP3      1642            0.0000000000
     27178      1834  TIP3      H2            -35.4921594739       18.2900865771       28.9934274681  TIP3      1642            0.0000000000
     27179      1835  TIP3      OH2           -18.2033445051       18.7617788532       31.0669655871  TIP3      1643            0.0000000000
     27180      1835  TIP3      H1            -18.1764419023       18.9270205758       32.0253694309  TIP3      1643            0.0000000000
     27181      1835  TIP3      H2            -17.4985619719       19.3425381997       30.7619545845  TIP3      1643            0.0000000000
     27182      1836  TIP3      OH2           -18.6299750207       18.3578611966       34.0131127712  TIP3      1644            0.0000000000
     27183      1836  TIP3      H1            -19.1010032891       17.5863227904       33.6323508415  TIP3      1644            0.0000000000
     27184      1836  TIP3      H2            -18.1329613025       17.9108632541       34.7187919720  TIP3      1644            0.0000000000
     27185      1837  TIP3      OH2           -20.1771644261       14.0689174227       38.6752277556  TIP3      1645            0.0000000000
     27186      1837  TIP3      H1            -21.0726381909       14.0528361155       39.0642480896  TIP3      1645            0.0000000000
     27187      1837  TIP3      H2            -19.8085125352       14.8753784992       39.0972530383  TIP3      1645            0.0000000000
     27188      1838  TIP3      OH2           -18.8104741447       12.3800298772       24.0597427171  TIP3      1646            0.0000000000
     27189      1838  TIP3      H1            -18.0478892239       12.8344675742       24.3775389710  TIP3      1646            0.0000000000
     27190      1838  TIP3      H2            -18.9172605650       11.6863392486       24.7513341633  TIP3      1646            0.0000000000
     27191      1839  TIP3      OH2           -18.4626950818       10.4459919608       25.9560853505  TIP3      1647            0.0000000000
     27192      1839  TIP3      H1            -19.2613659176       10.0104540545       26.3435395529  TIP3      1647            0.0000000000
     27193      1839  TIP3      H2            -17.9385488596       10.6321674939       26.7635311013  TIP3      1647            0.0000000000
     27194      1840  TIP3      OH2           -18.7491007283       13.1798044954       30.9840813054  TIP3      1648            0.0000000000
     27195      1840  TIP3      H1            -17.9316312144       12.8095842699       30.6084867029  TIP3      1648            0.0000000000
     27196      1840  TIP3      H2            -18.6091056936       14.1358857068       30.8192364766  TIP3      1648            0.0000000000
     27197      1841  TIP3      OH2           -20.1983997672       16.0869783796       33.2565187831  TIP3      1649            0.0000000000
     27198      1841  TIP3      H1            -20.8870744492       16.4255755957       33.8466175625  TIP3      1649            0.0000000000
     27199      1841  TIP3      H2            -20.7440002104       15.6786693133       32.5491729866  TIP3      1649            0.0000000000
     27200      1842  TIP3      OH2           -20.6487108858        8.9394931308       26.5637016767  TIP3      1650            0.0000000000
     27201      1842  TIP3      H1            -20.8613647640        7.9973410761       26.5430616550  TIP3      1650            0.0000000000
     27202      1842  TIP3      H2            -21.0313334043        9.1879706478       27.4256865410  TIP3      1650            0.0000000000
     27203      1843  TIP3      OH2           -35.6674297636       11.0178530278       30.5538631770  TIP3      1651            0.0000000000
     27204      1843  TIP3      H1            -35.4503142386       10.9917065792       29.5990507329  TIP3      1651            0.0000000000
     27205      1843  TIP3      H2            -34.7745714451       10.9261349609       30.9561229814  TIP3      1651            0.0000000000
     27206      1844  TIP3      OH2           -19.8326788734       10.9280222281       36.2694321772  TIP3      1652            0.0000000000
     27207      1844  TIP3      H1            -19.2226256855       10.1681431344       36.3809147213  TIP3      1652            0.0000000000
     27208      1844  TIP3      H2            -19.2285098988       11.6993485512       36.2517236322  TIP3      1652            0.0000000000
     27209      1845  TIP3      OH2           -18.3319656092        8.8131650411       36.9131526451  TIP3      1653            0.0000000000
     27210      1845  TIP3      H1            -19.2090235307        8.4080252197       36.7411599235  TIP3      1653            0.0000000000
     27211      1845  TIP3      H2            -17.7557730397        8.0342989182       36.8307070480  TIP3      1653            0.0000000000
     27212      1846  TIP3      OH2           -20.5988012253        4.9680635745       20.0304740312  TIP3      1654            0.0000000000
     27213      1846  TIP3      H1            -20.0236433212        4.5802092003       20.6922985619  TIP3      1654            0.0000000000
     27214      1846  TIP3      H2            -21.4582212044        4.5915857000       20.2377160965  TIP3      1654            0.0000000000
     27215      1847  TIP3      OH2           -21.0378701352        6.5311097954       24.9925394945  TIP3      1655            0.0000000000
     27216      1847  TIP3      H1            -20.7209291125        5.6063425544       25.1411233507  TIP3      1655            0.0000000000
     27217      1847  TIP3      H2            -20.2312140334        6.9417469565       24.6552791157  TIP3      1655            0.0000000000
     27218      1848  TIP3      OH2           -20.3903271003        7.0819366244       30.4722523280  TIP3      1656            0.0000000000
     27219      1848  TIP3      H1            -19.4328847637        7.3165681673       30.4610585110  TIP3      1656            0.0000000000
     27220      1848  TIP3      H2            -20.5833989193        7.2242179196       31.4113178516  TIP3      1656            0.0000000000
     27221      1849  TIP3      OH2           -20.3170708581        7.8053441793       33.2460198428  TIP3      1657            0.0000000000
     27222      1849  TIP3      H1            -21.1953634733        8.0950793165       33.5763428234  TIP3      1657            0.0000000000
     27223      1849  TIP3      H2            -19.8838749573        8.6663499743       33.0273506466  TIP3      1657            0.0000000000
     27224      1850  TIP3      OH2           -35.8018684656        6.2018707592       36.7645390452  TIP3      1658            0.0000000000
     27225      1850  TIP3      H1            -34.9142629509        6.0378071530       37.1027761364  TIP3      1658            0.0000000000
     27226      1850  TIP3      H2            -36.3807002131        5.5253489479       37.2002378376  TIP3      1658            0.0000000000
     27227      1851  TIP3      OH2           -18.0383904594        1.8624875581       38.5733535931  TIP3      1659            0.0000000000
     27228      1851  TIP3      H1            -17.6887317420        1.1875327063       37.9738929200  TIP3      1659            0.0000000000
     27229      1851  TIP3      H2            -17.9336181919        2.6828398935       38.0620556801  TIP3      1659            0.0000000000
     27230      1852  TIP3      OH2           -20.3451773823        3.8366966832       25.0685333174  TIP3      1660            0.0000000000
     27231      1852  TIP3      H1            -20.1419049514        3.3922246663       25.9197713561  TIP3      1660            0.0000000000
     27232      1852  TIP3      H2            -20.9525741361        3.1931638157       24.6323259731  TIP3      1660            0.0000000000
     27233      1853  TIP3      OH2           -34.8278942768        4.5870632670       29.5816543044  TIP3      1661            0.0000000000
     27234      1853  TIP3      H1            -34.3669734490        3.8001217306       29.9162721451  TIP3      1661            0.0000000000
     27235      1853  TIP3      H2            -34.3322945641        5.2975539704       30.0199411617  TIP3      1661            0.0000000000
     27236      1854  TIP3      OH2           -36.0098930068        8.3637260699       31.0236333272  TIP3      1662            0.0000000000
     27237      1854  TIP3      H1            -35.9976249208        7.9375253725       30.1381403440  TIP3      1662            0.0000000000
     27238      1854  TIP3      H2            -35.9338431012        9.2772943623       30.7544233537  TIP3      1662            0.0000000000
     27239      1855  TIP3      OH2           -18.5233252815        3.9686791464       36.9487402325  TIP3      1663            0.0000000000
     27240      1855  TIP3      H1            -19.4651964221        4.2325492863       36.9102058172  TIP3      1663            0.0000000000
     27241      1855  TIP3      H2            -18.4864299627        3.4182718302       36.1508738097  TIP3      1663            0.0000000000
     27242      1856  TIP3      OH2           -35.7819288623        4.0255562641       24.4779009523  TIP3      1664            0.0000000000
     27243      1856  TIP3      H1            -36.7542278453        4.0385313832       24.4939861608  TIP3      1664            0.0000000000
     27244      1856  TIP3      H2            -35.6471812130        4.6668592318       23.8016927767  TIP3      1664            0.0000000000
     27245      1857  TIP3      OH2           -21.4778922675       18.8608340841       26.6610786242  TIP3      1665            0.0000000000
     27246      1857  TIP3      H1            -20.7915775459       18.5353172483       26.0621229862  TIP3      1665            0.0000000000
     27247      1857  TIP3      H2            -20.9706184487       19.3471140703       27.3299945187  TIP3      1665            0.0000000000
     27248      1858  TIP3      OH2            37.0334655137        2.5198613683       33.2427979608  TIP3      1666            0.0000000000
     27249      1858  TIP3      H1             36.2395791845        2.3124859801       33.7613075407  TIP3      1666            0.0000000000
     27250      1858  TIP3      H2             36.5488295196        3.0438964142       32.5812173673  TIP3      1666            0.0000000000
     27251      1859  TIP3      OH2           -34.0577183242       15.7878749608       37.2161059381  TIP3      1667            0.0000000000
     27252      1859  TIP3      H1            -34.9131187537       15.9280549713       36.7978030004  TIP3      1667            0.0000000000
     27253      1859  TIP3      H2            -34.3059986742       15.6918376654       38.1391250626  TIP3      1667            0.0000000000
     27254      1860  TIP3      OH2           -31.1034708553       16.7654844190       33.5050509804  TIP3      1668            0.0000000000
     27255      1860  TIP3      H1            -31.5109965522       17.5901171645       33.1933523035  TIP3      1668            0.0000000000
     27256      1860  TIP3      H2            -30.1920655915       16.8609422863       33.1634413143  TIP3      1668            0.0000000000
     27257      1861  TIP3      OH2           -26.8245261386       18.2009971519       36.4019622356  TIP3      1669            0.0000000000
     27258      1861  TIP3      H1            -26.6693406836       17.8107453260       37.2972602258  TIP3      1669            0.0000000000
     27259      1861  TIP3      H2            -25.9107577565       18.4577959233       36.1498255864  TIP3      1669            0.0000000000
     27260      1862  TIP3      OH2           -24.5316086395       19.4544325331       35.6882417557  TIP3      1670            0.0000000000
     27261      1862  TIP3      H1            -23.8061014389       18.8605394055       35.4490577279  TIP3      1670            0.0000000000
     27262      1862  TIP3      H2            -24.1384111715       19.8751753981       36.4843546789  TIP3      1670            0.0000000000
     27263      1863  TIP3      OH2           -19.5068511086        2.0566297982       34.7969746185  TIP3      1671            0.0000000000
     27264      1863  TIP3      H1            -20.3346472468        2.3554287360       34.3827718054  TIP3      1671            0.0000000000
     27265      1863  TIP3      H2            -19.3336153349        1.2402242742       34.2716490485  TIP3      1671            0.0000000000
     27266      1864  TIP3      OH2           -33.6599465573       20.0656268848       33.5427552631  TIP3      1672            0.0000000000
     27267      1864  TIP3      H1            -34.4107813123       20.4718280282       33.0668314302  TIP3      1672            0.0000000000
     27268      1864  TIP3      H2            -34.0258147443       19.7323032434       34.3692869824  TIP3      1672            0.0000000000
     27269      1865  TIP3      OH2           -31.2165901026       19.6255425137       32.5709815929  TIP3      1673            0.0000000000
     27270      1865  TIP3      H1            -32.1364508107       19.6907127655       32.9129211233  TIP3      1673            0.0000000000
     27271      1865  TIP3      H2            -31.2770254582       20.1474357078       31.7470122668  TIP3      1673            0.0000000000
     27272      1866  TIP3      OH2           -26.5529027705       19.4698636759       31.7412120432  TIP3      1674            0.0000000000
     27273      1866  TIP3      H1            -26.9822592110       20.0136899954       31.0578553257  TIP3      1674            0.0000000000
     27274      1866  TIP3      H2            -26.3745555693       20.1222940882       32.4454832120  TIP3      1674            0.0000000000
     27275      1867  TIP3      OH2           -24.2359337265       18.2991547553       32.7336602009  TIP3      1675            0.0000000000
     27276      1867  TIP3      H1            -25.0983945243       18.5653059494       32.3779093506  TIP3      1675            0.0000000000
     27277      1867  TIP3      H2            -23.7593057913       19.1425731440       32.6424199497  TIP3      1675            0.0000000000
     27278      1868  TIP3      OH2           -21.6541456144       19.8683695023       32.9683091183  TIP3      1676            0.0000000000
     27279      1868  TIP3      H1            -21.7227515525       20.8274166884       32.7394951410  TIP3      1676            0.0000000000
     27280      1868  TIP3      H2            -21.4390509677       19.4954271349       32.0908612654  TIP3      1676            0.0000000000
     27281      1869  TIP3      OH2           -34.3026889319       18.6574640807       30.4310351120  TIP3      1677            0.0000000000
     27282      1869  TIP3      H1            -34.2898823602       18.1653844021       31.2741059545  TIP3      1677            0.0000000000
     27283      1869  TIP3      H2            -33.4927560931       18.2823921207       30.0174355744  TIP3      1677            0.0000000000
     27284      1870  TIP3      OH2           -32.2362796340       17.3726628010       29.1215561034  TIP3      1678            0.0000000000
     27285      1870  TIP3      H1            -32.3505308609       16.4175690008       29.2973172450  TIP3      1678            0.0000000000
     27286      1870  TIP3      H2            -31.3351955319       17.4927089973       29.4965873756  TIP3      1678            0.0000000000
     27287      1871  TIP3      OH2           -29.5721441329       17.8370382609       29.9467075836  TIP3      1679            0.0000000000
     27288      1871  TIP3      H1            -29.4158459169       16.9062171575       29.6692440676  TIP3      1679            0.0000000000
     27289      1871  TIP3      H2            -29.5291654283       17.7311569104       30.9067680940  TIP3      1679            0.0000000000
     27290      1872  TIP3      OH2           -26.1141730867        3.4888392985       29.0801775940  TIP3      1680            0.0000000000
     27291      1872  TIP3      H1            -26.7878152182        2.8458482961       29.3594170355  TIP3      1680            0.0000000000
     27292      1872  TIP3      H2            -25.5585215737        2.9563264970       28.4985215928  TIP3      1680            0.0000000000
     27293      1873  TIP3      OH2           -20.9786353665        1.5376598672       29.1540432334  TIP3      1681            0.0000000000
     27294      1873  TIP3      H1            -20.3636709559        2.1300991612       28.6529051907  TIP3      1681            0.0000000000
     27295      1873  TIP3      H2            -21.8599929700        1.8947513051       28.9163344602  TIP3      1681            0.0000000000
     27296      1874  TIP3      OH2           -19.2921252485        2.7948871727       27.4361217463  TIP3      1682            0.0000000000
     27297      1874  TIP3      H1            -18.6046856719        2.2294975912       27.0030231085  TIP3      1682            0.0000000000
     27298      1874  TIP3      H2            -18.8060887843        3.6341471392       27.5573897739  TIP3      1682            0.0000000000
     27299      1875  TIP3      OH2           -33.7528050379        2.1177032561       26.9616226285  TIP3      1683            0.0000000000
     27300      1875  TIP3      H1            -34.5284817167        1.8935547928       26.3992500995  TIP3      1683            0.0000000000
     27301      1875  TIP3      H2            -33.2484876775        1.2860036929       26.8541343550  TIP3      1683            0.0000000000
     27302      1876  TIP3      OH2           -29.2661374580        2.0393335964       26.7186301340  TIP3      1684            0.0000000000
     27303      1876  TIP3      H1            -28.3637452453        2.3958198977       26.6542492340  TIP3      1684            0.0000000000
     27304      1876  TIP3      H2            -29.3102584079        1.8165464790       27.6472200046  TIP3      1684            0.0000000000
     27305      1877  TIP3      OH2           -23.5765744009        2.0584371736       28.3573660412  TIP3      1685            0.0000000000
     27306      1877  TIP3      H1            -23.6089933794        2.1674720744       27.3978201142  TIP3      1685            0.0000000000
     27307      1877  TIP3      H2            -23.9390661389        1.1465115259       28.4760263058  TIP3      1685            0.0000000000
     27308      1878  TIP3      OH2           -22.2772760693        2.0865831717       24.0306521681  TIP3      1686            0.0000000000
     27309      1878  TIP3      H1            -23.0060675933        2.6847633098       23.8330905299  TIP3      1686            0.0000000000
     27310      1878  TIP3      H2            -22.7280727864        1.2356481522       24.2229126917  TIP3      1686            0.0000000000
     27311      1879  TIP3      OH2           -28.1740719345        4.0683943144       23.5811494371  TIP3      1687            0.0000000000
     27312      1879  TIP3      H1            -27.8723573266        3.4802024673       24.2923216781  TIP3      1687            0.0000000000
     27313      1879  TIP3      H2            -28.0552349772        4.9309000948       24.0370850456  TIP3      1687            0.0000000000
     27314      1880  TIP3      OH2           -19.4621127696       18.6177981427       24.6604810204  TIP3      1688            0.0000000000
     27315      1880  TIP3      H1            -19.7449081776       17.8784804980       24.1083144395  TIP3      1688            0.0000000000
     27316      1880  TIP3      H2            -19.5626996488       19.3791033599       24.0769954036  TIP3      1688            0.0000000000
     27317      1881  TIP3      OH2           -33.9046085935        2.6634041274       36.4164130431  TIP3      1689            0.0000000000
     27318      1881  TIP3      H1            -34.2403552081        1.8271106517       36.7928418608  TIP3      1689            0.0000000000
     27319      1881  TIP3      H2            -32.9748477070        2.6110492233       36.7417722953  TIP3      1689            0.0000000000
     27320      1882  TIP3      OH2           -31.8502297465        2.0307552304       38.0138740473  TIP3      1690            0.0000000000
     27321      1882  TIP3      H1            -30.9663820154        1.6816369063       37.7829565196  TIP3      1690            0.0000000000
     27322      1882  TIP3      H2            -32.2446193009        1.2368220399       38.4259382351  TIP3      1690            0.0000000000
     27323      1883  TIP3      OH2           -23.4511396407        1.3278515699       38.1719907750  TIP3      1691            0.0000000000
     27324      1883  TIP3      H1            -23.3532356319        0.8498047925       39.0170892869  TIP3      1691            0.0000000000
     27325      1883  TIP3      H2            -22.5354411819        1.2966067506       37.8246749873  TIP3      1691            0.0000000000
     27326      1884  TIP3      OH2           -20.2478897209       17.3693101132       36.8380824641  TIP3      1692            0.0000000000
     27327      1884  TIP3      H1            -21.0410719652       17.2303435780       36.2754278771  TIP3      1692            0.0000000000
     27328      1884  TIP3      H2            -20.3510624588       18.3239664379       37.0236362684  TIP3      1692            0.0000000000
     27329      1885  TIP3      OH2            -5.8014454443       11.2617397127       26.8822148686  TIP3      1693            0.0000000000
     27330      1885  TIP3      H1             -5.8059281779       12.2272275822       26.7334754462  TIP3      1693            0.0000000000
     27331      1885  TIP3      H2             -6.4673228027       11.0058639431       26.1956349372  TIP3      1693            0.0000000000
     27332      1886  TIP3      OH2            -6.9426946384       10.5093516766       30.2935643769  TIP3      1694            0.0000000000
     27333      1886  TIP3      H1             -6.9570579559        9.8552627324       31.0029013930  TIP3      1694            0.0000000000
     27334      1886  TIP3      H2             -7.2797542131       10.0121683610       29.5317726379  TIP3      1694            0.0000000000
     27335      1887  TIP3      OH2           -14.5770798874       10.1638748804       31.8220558183  TIP3      1695            0.0000000000
     27336      1887  TIP3      H1            -14.5088672181        9.5027861433       32.5466258632  TIP3      1695            0.0000000000
     27337      1887  TIP3      H2            -13.8484717895       10.7542334054       32.0705253026  TIP3      1695            0.0000000000
     27338      1888  TIP3      OH2            -3.2474288282       13.4598819087       28.5671401595  TIP3      1696            0.0000000000
     27339      1888  TIP3      H1             -3.6822709115       12.7498353192       29.0455496712  TIP3      1696            0.0000000000
     27340      1888  TIP3      H2             -3.2319637164       14.1662909115       29.2404969890  TIP3      1696            0.0000000000
     27341      1889  TIP3      OH2           -13.6614690527       14.6225899662       30.3514901848  TIP3      1697            0.0000000000
     27342      1889  TIP3      H1            -13.9799513550       13.7652044678       30.0143844729  TIP3      1697            0.0000000000
     27343      1889  TIP3      H2            -12.7024948272       14.4479085735       30.3999445939  TIP3      1697            0.0000000000
     27344      1890  TIP3      OH2           -17.0244276968        8.2244078588       25.7779779759  TIP3      1698            0.0000000000
     27345      1890  TIP3      H1            -17.5477050079        9.0625934884       25.7812808304  TIP3      1698            0.0000000000
     27346      1890  TIP3      H2            -17.6102876257        7.6532625730       25.2458582536  TIP3      1698            0.0000000000
     27347      1891  TIP3      OH2           -16.3348841800       10.3339903433       27.8537419513  TIP3      1699            0.0000000000
     27348      1891  TIP3      H1            -16.0484425459        9.6585892301       28.5032416627  TIP3      1699            0.0000000000
     27349      1891  TIP3      H2            -15.5590240837       10.6374057035       27.3728026224  TIP3      1699            0.0000000000
     27350      1892  TIP3      OH2            -6.1304759123       18.6120608487       28.8116584798  TIP3      1700            0.0000000000
     27351      1892  TIP3      H1             -5.4877922855       17.9167848764       28.5252048512  TIP3      1700            0.0000000000
     27352      1892  TIP3      H2             -6.3456241983       18.2850425902       29.6843205966  TIP3      1700            0.0000000000
     27353      1893  TIP3      OH2            -8.5639553118       12.9054449675       30.7490876414  TIP3      1701            0.0000000000
     27354      1893  TIP3      H1             -8.2237256360       12.2794633450       30.0879657150  TIP3      1701            0.0000000000
     27355      1893  TIP3      H2             -7.7607778086       13.0625346009       31.2754769624  TIP3      1701            0.0000000000
     27356      1894  TIP3      OH2             0.0366864471        4.5650343734       31.4920216009  TIP3      1702            0.0000000000
     27357      1894  TIP3      H1              0.2093755471        5.1574090716       32.2553502501  TIP3      1702            0.0000000000
     27358      1894  TIP3      H2              0.5961403531        4.9901157373       30.8255252233  TIP3      1702            0.0000000000
     27359      1895  TIP3      OH2            -5.4286468490        7.3586315363       31.0753558001  TIP3      1703            0.0000000000
     27360      1895  TIP3      H1             -5.2247092077        6.4172683637       31.0653410300  TIP3      1703            0.0000000000
     27361      1895  TIP3      H2             -5.4997420443        7.5348455180       30.1136028726  TIP3      1703            0.0000000000
     27362      1896  TIP3      OH2           -12.3195073446        5.4683521116       28.2923584918  TIP3      1704            0.0000000000
     27363      1896  TIP3      H1            -12.1511400490        6.2896141288       27.8110752044  TIP3      1704            0.0000000000
     27364      1896  TIP3      H2            -12.6790590304        4.8767755543       27.6019050812  TIP3      1704            0.0000000000
     27365      1897  TIP3      OH2            -4.5545516047        5.5325190756       26.6872229574  TIP3      1705            0.0000000000
     27366      1897  TIP3      H1             -3.8679219678        5.2331712205       27.3239190147  TIP3      1705            0.0000000000
     27367      1897  TIP3      H2             -4.0179088936        6.0985704031       26.1089892297  TIP3      1705            0.0000000000
     27368      1898  TIP3      OH2           -15.5889032022        7.9085143825       29.0002802634  TIP3      1706            0.0000000000
     27369      1898  TIP3      H1            -15.0019330847        7.3302892056       29.5447444037  TIP3      1706            0.0000000000
     27370      1898  TIP3      H2            -15.6601449811        7.3603776888       28.2218356399  TIP3      1706            0.0000000000
     27371      1899  TIP3      OH2           -10.5205562848        9.4184657703       28.3298669305  TIP3      1707            0.0000000000
     27372      1899  TIP3      H1             -9.8335842044        8.8606238576       28.7416265435  TIP3      1707            0.0000000000
     27373      1899  TIP3      H2            -11.0104995042        8.7440451167       27.8319879700  TIP3      1707            0.0000000000
     27374      1900  TIP3      OH2             0.4680151562        5.9682569996       33.7608316283  TIP3      1708            0.0000000000
     27375      1900  TIP3      H1             -0.1392989107        6.7328616101       33.6578280300  TIP3      1708            0.0000000000
     27376      1900  TIP3      H2              0.5084194310        5.8829770775       34.7220880029  TIP3      1708            0.0000000000
     27377      1901  TIP3      OH2           -13.3814187800        4.3654869560       32.3313275461  TIP3      1709            0.0000000000
     27378      1901  TIP3      H1            -13.6614698364        4.9302105480       31.5851425293  TIP3      1709            0.0000000000
     27379      1901  TIP3      H2            -14.0606025266        4.5932267298       33.0130120277  TIP3      1709            0.0000000000
     27380      1902  TIP3      OH2            -6.0740474553       13.8604003483       25.8775853123  TIP3      1710            0.0000000000
     27381      1902  TIP3      H1             -6.3897062726       13.5666050445       25.0005741033  TIP3      1710            0.0000000000
     27382      1902  TIP3      H2             -6.3998233577       14.7914188692       25.9184445829  TIP3      1710            0.0000000000
     27383      1903  TIP3      OH2           -10.8617975366       12.0061101823       32.5750596125  TIP3      1711            0.0000000000
     27384      1903  TIP3      H1            -11.5710019403       12.6505921752       32.7845098015  TIP3      1711            0.0000000000
     27385      1903  TIP3      H2            -10.1566075771       12.6047887596       32.2834398284  TIP3      1711            0.0000000000
     27386      1904  TIP3      OH2            -2.7938076718        4.8949306617       28.6942947444  TIP3      1712            0.0000000000
     27387      1904  TIP3      H1             -2.9232364647        4.0984407718       29.2037033551  TIP3      1712            0.0000000000
     27388      1904  TIP3      H2             -2.0698126508        5.3254471944       29.1843011919  TIP3      1712            0.0000000000
     27389      1905  TIP3      OH2           -13.8398202862        6.2677697342       30.3078867564  TIP3      1713            0.0000000000
     27390      1905  TIP3      H1            -13.1795136435        6.8909262115       30.6899278871  TIP3      1713            0.0000000000
     27391      1905  TIP3      H2            -13.2839034530        5.7898277244       29.6393029485  TIP3      1713            0.0000000000
     27392      1906  TIP3      OH2           -12.4222766275       14.0013307966       33.3892363226  TIP3      1714            0.0000000000
     27393      1906  TIP3      H1            -12.4624273118       14.9162458110       33.0519356958  TIP3      1714            0.0000000000
     27394      1906  TIP3      H2            -13.3031135481       13.9298533173       33.8365841035  TIP3      1714            0.0000000000
     27395      1907  TIP3      OH2            -2.7245195280       15.2919380157       30.9410401086  TIP3      1715            0.0000000000
     27396      1907  TIP3      H1             -3.6923510951       15.4000799938       31.0628924311  TIP3      1715            0.0000000000
     27397      1907  TIP3      H2             -2.4553304696       16.2093728531       30.7443271007  TIP3      1715            0.0000000000
     27398      1908  TIP3      OH2            -2.4292636882        3.5721582854       32.2780155633  TIP3      1716            0.0000000000
     27399      1908  TIP3      H1             -3.1224231011        4.2387972121       32.2551569894  TIP3      1716            0.0000000000
     27400      1908  TIP3      H2             -1.6826003394        4.0034564571       31.8131426154  TIP3      1716            0.0000000000
     27401      1909  TIP3      OH2            -9.3889470523        1.6881637315       29.8636773941  TIP3      1717            0.0000000000
     27402      1909  TIP3      H1             -9.5916532172        0.7380149142       29.7067260967  TIP3      1717            0.0000000000
     27403      1909  TIP3      H2            -10.2985272231        2.0088025313       30.0762300058  TIP3      1717            0.0000000000
     27404      1910  TIP3      OH2            -4.4625984106       17.0736983428       27.5427072194  TIP3      1718            0.0000000000
     27405      1910  TIP3      H1             -4.0367184366       16.3586690376       27.0263002854  TIP3      1718            0.0000000000
     27406      1910  TIP3      H2             -4.0457011571       17.8665976979       27.1419163487  TIP3      1718            0.0000000000
     27407      1911  TIP3      OH2            -3.2405530852       15.0111919640       26.0468683934  TIP3      1719            0.0000000000
     27408      1911  TIP3      H1             -3.5395376537       14.3195421901       25.4284883604  TIP3      1719            0.0000000000
     27409      1911  TIP3      H2             -3.2360057302       14.5070657991       26.8812610520  TIP3      1719            0.0000000000
     27410      1912  TIP3      OH2            -1.6350847346       13.5937246641       34.5427868890  TIP3      1720            0.0000000000
     27411      1912  TIP3      H1             -1.4898859774       12.9466121460       33.8173643210  TIP3      1720            0.0000000000
     27412      1912  TIP3      H2             -1.4353571765       14.4417039056       34.1093236098  TIP3      1720            0.0000000000
     27413      1913  TIP3      OH2            -6.8721338425       10.7007440532       24.6239187456  TIP3      1721            0.0000000000
     27414      1913  TIP3      H1             -7.7102142086       10.9689313523       24.1469114427  TIP3      1721            0.0000000000
     27415      1913  TIP3      H2             -6.4380556554       10.5645680636       23.7515819979  TIP3      1721            0.0000000000
     27416      1914  TIP3      OH2             0.2504415518        9.9061951043       32.5922277442  TIP3      1722            0.0000000000
     27417      1914  TIP3      H1             -0.4121109916       10.6263426981       32.6317413423  TIP3      1722            0.0000000000
     27418      1914  TIP3      H2              0.7353725649       10.1378826655       31.7792207849  TIP3      1722            0.0000000000
     27419      1915  TIP3      OH2            -3.6761113691       10.7147008592       25.2545826814  TIP3      1723            0.0000000000
     27420      1915  TIP3      H1             -4.4553871284       10.9431836851       25.8130507936  TIP3      1723            0.0000000000
     27421      1915  TIP3      H2             -3.2351087554       10.0277918277       25.7811101406  TIP3      1723            0.0000000000
     27422      1916  TIP3      OH2            -3.7764566153        8.8629443512       34.3540094615  TIP3      1724            0.0000000000
     27423      1916  TIP3      H1             -3.7545712357        9.6788001131       34.8814121210  TIP3      1724            0.0000000000
     27424      1916  TIP3      H2             -4.3996165723        9.1613987061       33.6586931398  TIP3      1724            0.0000000000
     27425      1917  TIP3      OH2           -12.1130242662       11.3552159142       27.1448758253  TIP3      1725            0.0000000000
     27426      1917  TIP3      H1            -12.3543422520       10.9977141240       26.2631168873  TIP3      1725            0.0000000000
     27427      1917  TIP3      H2            -11.4407229816       10.7026450331       27.4620465897  TIP3      1725            0.0000000000
     27428      1918  TIP3      OH2           -10.7616308520       14.7442867952       29.8248954378  TIP3      1726            0.0000000000
     27429      1918  TIP3      H1            -10.7724014653       14.2184911205       29.0142109730  TIP3      1726            0.0000000000
     27430      1918  TIP3      H2             -9.9795818473       14.3869844831       30.2844635272  TIP3      1726            0.0000000000
     27431      1919  TIP3      OH2           -11.7642047133       10.1106659588       30.7825976983  TIP3      1727            0.0000000000
     27432      1919  TIP3      H1            -11.1738723547       10.2206316702       30.0140243938  TIP3      1727            0.0000000000
     27433      1919  TIP3      H2            -11.3805828389       10.7615340998       31.4107758686  TIP3      1727            0.0000000000
     27434      1920  TIP3      OH2            -5.3425471630       15.6728846123       31.5084182153  TIP3      1728            0.0000000000
     27435      1920  TIP3      H1             -5.6275271636       16.3085005978       32.1709984985  TIP3      1728            0.0000000000
     27436      1920  TIP3      H2             -5.5956245856       14.8188138312       31.9338557701  TIP3      1728            0.0000000000
     27437      1921  TIP3      OH2           -10.8019761922       14.5328205286       35.4981731993  TIP3      1729            0.0000000000
     27438      1921  TIP3      H1            -11.2055722932       15.2789390276       35.9862617877  TIP3      1729            0.0000000000
     27439      1921  TIP3      H2            -11.4767636830       14.3382306157       34.8022456021  TIP3      1729            0.0000000000
     27440      1922  TIP3      OH2            -4.7708099856        9.8104042359       22.9074456127  TIP3      1730            0.0000000000
     27441      1922  TIP3      H1             -4.2825729948       10.1043912030       23.7078767454  TIP3      1730            0.0000000000
     27442      1922  TIP3      H2             -4.4707935827       10.4201419666       22.2201111361  TIP3      1730            0.0000000000
     27443      1923  TIP3      OH2           -13.8629712540       10.6966232403       34.6615732409  TIP3      1731            0.0000000000
     27444      1923  TIP3      H1            -13.8131623784       11.3609958584       35.3756518224  TIP3      1731            0.0000000000
     27445      1923  TIP3      H2            -14.8016401532       10.7906476745       34.4418512807  TIP3      1731            0.0000000000
     27446      1924  TIP3      OH2            -7.1113353879       16.6105687828       26.3520293791  TIP3      1732            0.0000000000
     27447      1924  TIP3      H1             -6.6812072350       16.9194036032       27.1581275891  TIP3      1732            0.0000000000
     27448      1924  TIP3      H2             -7.6748141551       17.3543225404       26.1038301035  TIP3      1732            0.0000000000
     27449      1925  TIP3      OH2           -12.5575444824       16.5731707748       36.2490817256  TIP3      1733            0.0000000000
     27450      1925  TIP3      H1            -12.6119718594       16.4678887769       35.2842885811  TIP3      1733            0.0000000000
     27451      1925  TIP3      H2            -13.4888743281       16.4419910539       36.5129404279  TIP3      1733            0.0000000000
     27452      1926  TIP3      OH2           -13.2164297895       10.4415003773       24.8449603320  TIP3      1734            0.0000000000
     27453      1926  TIP3      H1            -13.2850025113       11.1900284283       24.2276115756  TIP3      1734            0.0000000000
     27454      1926  TIP3      H2            -13.7278032134        9.7434107140       24.4401867344  TIP3      1734            0.0000000000
     27455      1927  TIP3      OH2             0.0425956996       15.9827672863       21.1988031096  TIP3      1735            0.0000000000
     27456      1927  TIP3      H1              0.1228558348       16.9464154916       21.2435768615  TIP3      1735            0.0000000000
     27457      1927  TIP3      H2              0.9463019995       15.6984305441       21.0547777233  TIP3      1735            0.0000000000
     27458      1928  TIP3      OH2           -17.0242233660       12.8056854913       33.6477343695  TIP3      1736            0.0000000000
     27459      1928  TIP3      H1            -17.4729893343       12.7301034093       32.7862859778  TIP3      1736            0.0000000000
     27460      1928  TIP3      H2            -16.9519617776       11.8591013696       33.8676479208  TIP3      1736            0.0000000000
     27461      1929  TIP3      OH2           -17.2566633764       15.5471365627       30.4445319966  TIP3      1737            0.0000000000
     27462      1929  TIP3      H1            -16.2971717121       15.4340453984       30.3959679131  TIP3      1737            0.0000000000
     27463      1929  TIP3      H2            -17.3408733022       16.3660150144       30.9463461130  TIP3      1737            0.0000000000
     27464      1930  TIP3      OH2             0.9686427856       16.2496440863       36.0926855681  TIP3      1738            0.0000000000
     27465      1930  TIP3      H1              0.8602965154       15.2879512900       36.1011932386  TIP3      1738            0.0000000000
     27466      1930  TIP3      H2              0.1146054679       16.4954464775       36.5257019158  TIP3      1738            0.0000000000
     27467      1931  TIP3      OH2            -8.0663348238       15.7917268351       34.9858467335  TIP3      1739            0.0000000000
     27468      1931  TIP3      H1             -8.0057429925       16.6286990561       35.5050339951  TIP3      1739            0.0000000000
     27469      1931  TIP3      H2             -8.9397541054       15.4342624191       35.2357459696  TIP3      1739            0.0000000000
     27470      1932  TIP3      OH2            -7.6247223839       19.5401743065       24.7823433059  TIP3      1740            0.0000000000
     27471      1932  TIP3      H1             -7.7292017780       19.4484643196       23.8173262883  TIP3      1740            0.0000000000
     27472      1932  TIP3      H2             -7.6088822051       20.5028382068       24.9399644130  TIP3      1740            0.0000000000
     27473      1933  TIP3      OH2           -13.9961066978       18.4062633589       26.6133728572  TIP3      1741            0.0000000000
     27474      1933  TIP3      H1            -13.8382788093       17.9873810057       27.4872674583  TIP3      1741            0.0000000000
     27475      1933  TIP3      H2            -14.8400593444       18.0000165924       26.3748491020  TIP3      1741            0.0000000000
     27476      1934  TIP3      OH2            -4.6523679693       18.7381646054       21.7809978278  TIP3      1742            0.0000000000
     27477      1934  TIP3      H1             -4.1363785764       18.0439100946       21.2946107743  TIP3      1742            0.0000000000
     27478      1934  TIP3      H2             -4.5217531549       18.4588767514       22.7009866255  TIP3      1742            0.0000000000
     27479      1935  TIP3      OH2            -4.8888394748       18.6931091836       24.5527366665  TIP3      1743            0.0000000000
     27480      1935  TIP3      H1             -5.8497776093       18.7541999766       24.7250789932  TIP3      1743            0.0000000000
     27481      1935  TIP3      H2             -4.6297649329       17.9441231195       25.1094084840  TIP3      1743            0.0000000000
     27482      1936  TIP3      OH2            -1.8856692753        7.7198856922       36.5760070935  TIP3      1744            0.0000000000
     27483      1936  TIP3      H1             -2.3537311539        8.1738154167       35.8605415054  TIP3      1744            0.0000000000
     27484      1936  TIP3      H2             -1.8907012852        6.7978988956       36.2802702235  TIP3      1744            0.0000000000
     27485      1937  TIP3      OH2           -14.7422417075       14.1310480540       34.5896896328  TIP3      1745            0.0000000000
     27486      1937  TIP3      H1            -14.5190286097       13.7611630103       35.4680346802  TIP3      1745            0.0000000000
     27487      1937  TIP3      H2            -15.6094582013       13.7275323596       34.3796314059  TIP3      1745            0.0000000000
     27488      1938  TIP3      OH2           -12.0421833692        2.6143427222       30.5317603053  TIP3      1746            0.0000000000
     27489      1938  TIP3      H1            -12.9503720437        2.4697629560       30.1794619371  TIP3      1746            0.0000000000
     27490      1938  TIP3      H2            -12.2038020899        3.4387288399       31.0206180299  TIP3      1746            0.0000000000
     27491      1939  TIP3      OH2            -7.4156840060        2.2397488602       33.8756120186  TIP3      1747            0.0000000000
     27492      1939  TIP3      H1             -7.0302787968        1.8599733611       34.6998490715  TIP3      1747            0.0000000000
     27493      1939  TIP3      H2             -8.3883275916        2.1506642729       34.0615709405  TIP3      1747            0.0000000000
     27494      1940  TIP3      OH2            -4.1313610753        6.1078573731       34.7980680481  TIP3      1748            0.0000000000
     27495      1940  TIP3      H1             -4.6823006476        5.9030930180       35.5942193162  TIP3      1748            0.0000000000
     27496      1940  TIP3      H2             -4.3077617766        7.0371803552       34.5774998323  TIP3      1748            0.0000000000
     27497      1941  TIP3      OH2           -11.9769716089        7.5625695074       31.7658888085  TIP3      1749            0.0000000000
     27498      1941  TIP3      H1            -12.6940496997        7.5591207186       32.4255719275  TIP3      1749            0.0000000000
     27499      1941  TIP3      H2            -11.9932870469        8.4885249798       31.4398656483  TIP3      1749            0.0000000000
     27500      1942  TIP3      OH2           -12.0513852870        7.7552482091       26.6189272188  TIP3      1750            0.0000000000
     27501      1942  TIP3      H1            -12.9085989217        7.3258790244       26.4987003248  TIP3      1750            0.0000000000
     27502      1942  TIP3      H2            -11.5657861685        7.4206423486       25.8528296011  TIP3      1750            0.0000000000
     27503      1943  TIP3      OH2            -6.5352120995        8.1563273938       25.3686233572  TIP3      1751            0.0000000000
     27504      1943  TIP3      H1             -6.8671791644        9.0424880121       25.1124425360  TIP3      1751            0.0000000000
     27505      1943  TIP3      H2             -5.7772094715        8.0478917315       24.7803996319  TIP3      1751            0.0000000000
     27506      1944  TIP3      OH2            -7.4245335207        8.4129424433       36.9052566338  TIP3      1752            0.0000000000
     27507      1944  TIP3      H1             -7.9495603242        7.6189119130       37.1654980941  TIP3      1752            0.0000000000
     27508      1944  TIP3      H2             -6.5687531978        8.2655003825       37.3247666696  TIP3      1752            0.0000000000
     27509      1945  TIP3      OH2            -5.4579502956        7.6606874759       28.2701839797  TIP3      1753            0.0000000000
     27510      1945  TIP3      H1             -5.7348539937        8.2334297060       27.5335730041  TIP3      1753            0.0000000000
     27511      1945  TIP3      H2             -5.3495391157        6.8259503653       27.7792461004  TIP3      1753            0.0000000000
     27512      1946  TIP3      OH2           -14.3308632161        7.8283942287       33.4865462320  TIP3      1754            0.0000000000
     27513      1946  TIP3      H1            -14.2625810079        8.2353552433       34.3675459725  TIP3      1754            0.0000000000
     27514      1946  TIP3      H2            -14.7749412002        6.9887257627       33.6865971898  TIP3      1754            0.0000000000
     27515      1947  TIP3      OH2           -17.6418506401        4.9912521334       27.4298895238  TIP3      1755            0.0000000000
     27516      1947  TIP3      H1            -17.0045129174        4.8588702334       28.1585352788  TIP3      1755            0.0000000000
     27517      1947  TIP3      H2            -17.2420428655        4.5211304478       26.6699762535  TIP3      1755            0.0000000000
     27518      1948  TIP3      OH2           -16.3759796008        5.7186977535       22.9104092353  TIP3      1756            0.0000000000
     27519      1948  TIP3      H1            -15.8965052563        6.2228583820       22.2292494563  TIP3      1756            0.0000000000
     27520      1948  TIP3      H2            -17.1237476431        6.2955565744       23.1247667636  TIP3      1756            0.0000000000
     27521      1949  TIP3      OH2            -6.2397511455        9.2687233720       32.8354807454  TIP3      1757            0.0000000000
     27522      1949  TIP3      H1             -5.8683169307        8.5910242040       32.2321438883  TIP3      1757            0.0000000000
     27523      1949  TIP3      H2             -6.7064467005        8.7348357479       33.5029093579  TIP3      1757            0.0000000000
     27524      1950  TIP3      OH2            -9.4599407649        5.1941001910       27.6725600114  TIP3      1758            0.0000000000
     27525      1950  TIP3      H1            -10.3804401292        5.2505382818       27.9750657305  TIP3      1758            0.0000000000
     27526      1950  TIP3      H2             -8.9534414359        5.1121492797       28.4844412281  TIP3      1758            0.0000000000
     27527      1951  TIP3      OH2           -14.5727003206        6.4184689780       26.5259059523  TIP3      1759            0.0000000000
     27528      1951  TIP3      H1            -15.4137433051        6.5730820421       26.0758085097  TIP3      1759            0.0000000000
     27529      1951  TIP3      H2            -14.2752348953        5.6131723782       26.0202823716  TIP3      1759            0.0000000000
     27530      1952  TIP3      OH2            -5.0922486422        4.3134511605       30.9223164983  TIP3      1760            0.0000000000
     27531      1952  TIP3      H1             -5.7115395304        4.6098457617       31.6344438622  TIP3      1760            0.0000000000
     27532      1952  TIP3      H2             -5.5241921174        4.3793010475       30.0621327534  TIP3      1760            0.0000000000
     27533      1953  TIP3      OH2            -1.8395019607       20.1229676384       37.2702314687  TIP3      1761            0.0000000000
     27534      1953  TIP3      H1             -1.5550429333       20.4729781409       36.4060557231  TIP3      1761            0.0000000000
     27535      1953  TIP3      H2             -1.1083812490       20.4327823080       37.8307790604  TIP3      1761            0.0000000000
     27536      1954  TIP3      OH2           -14.1470775866       12.5828586352       36.8068765167  TIP3      1762            0.0000000000
     27537      1954  TIP3      H1            -13.4445951006       12.8476703879       37.4247371077  TIP3      1762            0.0000000000
     27538      1954  TIP3      H2            -14.9414709822       12.6933349685       37.3708939287  TIP3      1762            0.0000000000
     27539      1955  TIP3      OH2            -8.1498703820        7.9968895211       29.5793309570  TIP3      1763            0.0000000000
     27540      1955  TIP3      H1             -7.5694415283        7.4678426641       29.0186740164  TIP3      1763            0.0000000000
     27541      1955  TIP3      H2             -8.3057813760        7.4513748266       30.3569474829  TIP3      1763            0.0000000000
     27542      1956  TIP3      OH2           -13.1412023999        4.1600453044       25.9293815970  TIP3      1764            0.0000000000
     27543      1956  TIP3      H1            -13.4508015927        3.2324906991       25.9804498314  TIP3      1764            0.0000000000
     27544      1956  TIP3      H2            -12.3306744063        4.0510067711       25.4163818250  TIP3      1764            0.0000000000
     27545      1957  TIP3      OH2            -9.5165673201        6.3267569241       31.9902870932  TIP3      1765            0.0000000000
     27546      1957  TIP3      H1            -10.3448271158        6.8474927906       32.0659751506  TIP3      1765            0.0000000000
     27547      1957  TIP3      H2             -8.9760161632        6.6956936512       32.7154103712  TIP3      1765            0.0000000000
     27548      1958  TIP3      OH2            -9.0317136094       12.8237078971       23.7455775760  TIP3      1766            0.0000000000
     27549      1958  TIP3      H1             -9.6211734006       12.1590677958       23.3340479512  TIP3      1766            0.0000000000
     27550      1958  TIP3      H2             -9.1727633003       12.6496867865       24.6793973686  TIP3      1766            0.0000000000
     27551      1959  TIP3      OH2            -1.7519401951       11.7459799015       32.4760390872  TIP3      1767            0.0000000000
     27552      1959  TIP3      H1             -1.1824829974       12.2285192098       31.8502702029  TIP3      1767            0.0000000000
     27553      1959  TIP3      H2             -2.6102676555       11.8029397966       32.0081634632  TIP3      1767            0.0000000000
     27554      1960  TIP3      OH2            -5.0803137386        5.3864812092       21.7972320332  TIP3      1768            0.0000000000
     27555      1960  TIP3      H1             -6.0166978846        5.5068866838       21.7151297848  TIP3      1768            0.0000000000
     27556      1960  TIP3      H2             -4.7601240537        6.2294180065       22.1913096404  TIP3      1768            0.0000000000
     27557      1961  TIP3      OH2            -7.4407403685       12.8079449528       34.9105176416  TIP3      1769            0.0000000000
     27558      1961  TIP3      H1             -7.7934596070       12.3904803845       35.7036985986  TIP3      1769            0.0000000000
     27559      1961  TIP3      H2             -7.6875706958       13.7342883030       35.0161893397  TIP3      1769            0.0000000000
     27560      1962  TIP3      OH2            -4.3419223960        7.2448286512       23.5000566138  TIP3      1770            0.0000000000
     27561      1962  TIP3      H1             -3.4495308074        7.1400911069       23.8940168707  TIP3      1770            0.0000000000
     27562      1962  TIP3      H2             -4.3053645525        8.1007789555       23.0176989238  TIP3      1770            0.0000000000
     27563      1963  TIP3      OH2           -13.8641390214       11.8761614755       29.4307833170  TIP3      1771            0.0000000000
     27564      1963  TIP3      H1            -13.1107734752       11.8838310058       28.8072885053  TIP3      1771            0.0000000000
     27565      1963  TIP3      H2            -13.7262168577       11.0746648509       29.9610876205  TIP3      1771            0.0000000000
     27566      1964  TIP3      OH2            -6.7918319692       13.9992821976       22.7745849660  TIP3      1772            0.0000000000
     27567      1964  TIP3      H1             -7.1962150417       14.8423868336       23.0489149351  TIP3      1772            0.0000000000
     27568      1964  TIP3      H2             -7.5745089419       13.4046247673       22.8795567684  TIP3      1772            0.0000000000
     27569      1965  TIP3      OH2           -16.8296220487       10.3429365859       34.7523926752  TIP3      1773            0.0000000000
     27570      1965  TIP3      H1            -16.6546419579        9.8986451694       35.5989703939  TIP3      1773            0.0000000000
     27571      1965  TIP3      H2            -17.4506459632        9.7336504169       34.3108022899  TIP3      1773            0.0000000000
     27572      1966  TIP3      OH2            -9.8260456943        9.9009128257       36.9179117984  TIP3      1774            0.0000000000
     27573      1966  TIP3      H1            -10.1402602689        9.6097559705       36.0515957691  TIP3      1774            0.0000000000
     27574      1966  TIP3      H2             -8.8969830658        9.6021213144       36.8983878786  TIP3      1774            0.0000000000
     27575      1967  TIP3      OH2            -5.1396496236       15.2386786328       34.8615634046  TIP3      1775            0.0000000000
     27576      1967  TIP3      H1             -6.0645215173       15.4221945760       34.6282964261  TIP3      1775            0.0000000000
     27577      1967  TIP3      H2             -5.1690015148       15.5287275222       35.7932172830  TIP3      1775            0.0000000000
     27578      1968  TIP3      OH2             0.5235093530       13.2791107485       36.0605523102  TIP3      1776            0.0000000000
     27579      1968  TIP3      H1             -0.3676025086       13.5061187655       35.6951662209  TIP3      1776            0.0000000000
     27580      1968  TIP3      H2              1.0708678183       13.2385314579       35.2513649400  TIP3      1776            0.0000000000
     27581      1969  TIP3      OH2            -1.1486853373       16.2436360250       23.6647959093  TIP3      1777            0.0000000000
     27582      1969  TIP3      H1             -1.5506013111       15.4341201331       23.9942436471  TIP3      1777            0.0000000000
     27583      1969  TIP3      H2             -0.9086183492       16.0191684921       22.7485165693  TIP3      1777            0.0000000000
     27584      1970  TIP3      OH2            -3.9676717018       11.0684382703       30.7556272595  TIP3      1778            0.0000000000
     27585      1970  TIP3      H1             -4.9114446784       10.8552300142       30.6524903807  TIP3      1778            0.0000000000
     27586      1970  TIP3      H2             -3.5399163872       10.3037585151       30.3277690899  TIP3      1778            0.0000000000
     27587      1971  TIP3      OH2           -11.4831969630       15.4080140480       26.9047235641  TIP3      1779            0.0000000000
     27588      1971  TIP3      H1            -10.9566708825       16.1733024480       26.6149135756  TIP3      1779            0.0000000000
     27589      1971  TIP3      H2            -12.3340754752       15.6317204364       26.5124347037  TIP3      1779            0.0000000000
     27590      1972  TIP3      OH2            -9.9864150268       13.0547447200       26.5201268768  TIP3      1780            0.0000000000
     27591      1972  TIP3      H1            -10.3217440947       13.9698308233       26.4524087350  TIP3      1780            0.0000000000
     27592      1972  TIP3      H2            -10.7849294835       12.5829285759       26.7915056458  TIP3      1780            0.0000000000
     27593      1973  TIP3      OH2            -9.5791607294       17.2433942450       32.7815116972  TIP3      1781            0.0000000000
     27594      1973  TIP3      H1             -9.1281285930       18.0549240380       32.5001407164  TIP3      1781            0.0000000000
     27595      1973  TIP3      H2             -8.9684363058       16.9084253206       33.4625403295  TIP3      1781            0.0000000000
     27596      1974  TIP3      OH2           -11.3594181634       18.0534455054       25.9515127087  TIP3      1782            0.0000000000
     27597      1974  TIP3      H1            -12.3221386855       18.1876427463       26.0442541722  TIP3      1782            0.0000000000
     27598      1974  TIP3      H2            -10.9982961009       18.9030699299       26.2600603166  TIP3      1782            0.0000000000
     27599      1975  TIP3      OH2            -6.0512686221       13.2526232303       32.4076466850  TIP3      1783            0.0000000000
     27600      1975  TIP3      H1             -6.3867976285       13.0568013351       33.3074135564  TIP3      1783            0.0000000000
     27601      1975  TIP3      H2             -5.4153522235       12.5387823903       32.2390238179  TIP3      1783            0.0000000000
     27602      1976  TIP3      OH2            -3.7773834402       14.3049651316       21.5096719884  TIP3      1784            0.0000000000
     27603      1976  TIP3      H1             -3.4625937814       13.8256461741       22.2986427660  TIP3      1784            0.0000000000
     27604      1976  TIP3      H2             -4.7273207233       14.1332767503       21.6005742488  TIP3      1784            0.0000000000
     27605      1977  TIP3      OH2            -3.2465023499       17.8305274591       34.8979041494  TIP3      1785            0.0000000000
     27606      1977  TIP3      H1             -3.9319456466       17.3321372913       34.4126062879  TIP3      1785            0.0000000000
     27607      1977  TIP3      H2             -3.0583853065       18.5282731129       34.2357284098  TIP3      1785            0.0000000000
     27608      1978  TIP3      OH2           -15.1682227847        5.0860099147       34.2904741804  TIP3      1786            0.0000000000
     27609      1978  TIP3      H1            -16.0792354346        5.4318244164       34.2605474603  TIP3      1786            0.0000000000
     27610      1978  TIP3      H2            -15.2904099030        4.2277020875       34.7312280133  TIP3      1786            0.0000000000
     27611      1979  TIP3      OH2            -2.9551275476       12.9568693938       23.7612604349  TIP3      1787            0.0000000000
     27612      1979  TIP3      H1             -3.1919098289       12.1603180038       24.2807095983  TIP3      1787            0.0000000000
     27613      1979  TIP3      H2             -1.9954040944       12.9899533973       23.9270876120  TIP3      1787            0.0000000000
     27614      1980  TIP3      OH2           -15.5669674986       16.8727076171       32.7143947614  TIP3      1788            0.0000000000
     27615      1980  TIP3      H1            -15.2742699261       15.9489344019       32.7206869075  TIP3      1788            0.0000000000
     27616      1980  TIP3      H2            -15.3052162460       17.1576141350       33.5973615454  TIP3      1788            0.0000000000
     27617      1981  TIP3      OH2            -6.4224146964        4.8104007159       33.1867548483  TIP3      1789            0.0000000000
     27618      1981  TIP3      H1             -5.7442947067        4.9394932285       33.8697589215  TIP3      1789            0.0000000000
     27619      1981  TIP3      H2             -6.8440552890        3.9840397021       33.4901364438  TIP3      1789            0.0000000000
     27620      1982  TIP3      OH2            -5.7503656560        4.4924973414       24.3229715831  TIP3      1790            0.0000000000
     27621      1982  TIP3      H1             -5.4083345062        4.8785332397       23.5068526283  TIP3      1790            0.0000000000
     27622      1982  TIP3      H2             -5.1347578576        4.8480257789       24.9822091605  TIP3      1790            0.0000000000
     27623      1983  TIP3      OH2            -7.9688021230       16.6340230103       23.2050432400  TIP3      1791            0.0000000000
     27624      1983  TIP3      H1             -8.8633448354       17.0368828536       23.1992102076  TIP3      1791            0.0000000000
     27625      1983  TIP3      H2             -7.4980688794       17.1138391390       22.5218897994  TIP3      1791            0.0000000000
     27626      1984  TIP3      OH2            -7.9190143884        7.2086978935       34.3445835054  TIP3      1792            0.0000000000
     27627      1984  TIP3      H1             -7.8481963827        7.7675548686       35.1377316756  TIP3      1792            0.0000000000
     27628      1984  TIP3      H2             -7.2575804976        6.5194872679       34.4561265372  TIP3      1792            0.0000000000
     27629      1985  TIP3      OH2            -7.6131316294        3.2429733383       26.0477825750  TIP3      1793            0.0000000000
     27630      1985  TIP3      H1             -7.9585368489        3.9044749647       26.6724346811  TIP3      1793            0.0000000000
     27631      1985  TIP3      H2             -6.9242354836        3.7754512325       25.5795427459  TIP3      1793            0.0000000000
     27632      1986  TIP3      OH2           -10.6244609354       17.6784832453       23.2053584809  TIP3      1794            0.0000000000
     27633      1986  TIP3      H1            -10.5044111930       18.4604928052       22.6415560030  TIP3      1794            0.0000000000
     27634      1986  TIP3      H2            -10.9021626348       17.9879497625       24.0758250399  TIP3      1794            0.0000000000
     27635      1987  TIP3      OH2            -1.7411521459        5.0721081777       35.1894849017  TIP3      1795            0.0000000000
     27636      1987  TIP3      H1             -2.6699952989        5.3834881276       35.0598202342  TIP3      1795            0.0000000000
     27637      1987  TIP3      H2             -1.4388759893        5.0610464116       34.2651340369  TIP3      1795            0.0000000000
     27638      1988  TIP3      OH2            -3.1467131630        8.8598331633       29.2112150145  TIP3      1796            0.0000000000
     27639      1988  TIP3      H1             -3.9596859494        8.4106505722       28.9133980490  TIP3      1796            0.0000000000
     27640      1988  TIP3      H2             -2.6555386922        8.1694022803       29.7124267438  TIP3      1796            0.0000000000
     27641      1989  TIP3      OH2            -2.0680951064       18.1190051283       30.8712587638  TIP3      1797            0.0000000000
     27642      1989  TIP3      H1             -2.1609209653       18.7987178867       30.1766602889  TIP3      1797            0.0000000000
     27643      1989  TIP3      H2             -1.1033696282       18.1719993093       31.0446680278  TIP3      1797            0.0000000000
     27644      1990  TIP3      OH2           -14.5700636446        2.2390436545       29.6676070258  TIP3      1798            0.0000000000
     27645      1990  TIP3      H1            -14.7746894431        2.2630277840       28.7041823573  TIP3      1798            0.0000000000
     27646      1990  TIP3      H2            -14.9925492400        1.3921839415       29.9227275419  TIP3      1798            0.0000000000
     27647      1991  TIP3      OH2           -15.6434525876       16.1472102073       25.7850640170  TIP3      1799            0.0000000000
     27648      1991  TIP3      H1            -16.4726385153       16.6400458709       25.8064334311  TIP3      1799            0.0000000000
     27649      1991  TIP3      H2            -15.1125101685       16.6374530553       25.1419724073  TIP3      1799            0.0000000000
     27650      1992  TIP3      OH2           -16.4067865264       18.8101470996       37.1073330783  TIP3      1800            0.0000000000
     27651      1992  TIP3      H1            -15.8119534444       18.6083103635       37.8576980878  TIP3      1800            0.0000000000
     27652      1992  TIP3      H2            -16.8259518015       17.9502036887       36.9321448221  TIP3      1800            0.0000000000
     27653      1993  TIP3      OH2           -11.7332131981       17.7055247664       38.7165853202  TIP3      1801            0.0000000000
     27654      1993  TIP3      H1            -10.9604825526       17.2315748857       39.0444733235  TIP3      1801            0.0000000000
     27655      1993  TIP3      H2            -11.7507756317       17.4493410844       37.7734745947  TIP3      1801            0.0000000000
     27656      1994  TIP3      OH2            -5.2375909470       16.1181832762       37.4491574426  TIP3      1802            0.0000000000
     27657      1994  TIP3      H1             -5.5440833208       15.2266711147       37.7154472401  TIP3      1802            0.0000000000
     27658      1994  TIP3      H2             -4.4556268855       16.2349941798       38.0231743757  TIP3      1802            0.0000000000
     27659      1995  TIP3      OH2            -3.0033700061       17.0408099403       20.3498093218  TIP3      1803            0.0000000000
     27660      1995  TIP3      H1             -2.7733133123       16.1927252046       20.7687761714  TIP3      1803            0.0000000000
     27661      1995  TIP3      H2             -2.2713165799       17.2635940760       19.7737966568  TIP3      1803            0.0000000000
     27662      1996  TIP3      OH2           -16.4996908944       12.5497714051       38.1118551448  TIP3      1804            0.0000000000
     27663      1996  TIP3      H1            -16.3227175438       11.6663975571       37.7445065843  TIP3      1804            0.0000000000
     27664      1996  TIP3      H2            -17.2210258454       12.8464806756       37.5253858371  TIP3      1804            0.0000000000
     27665      1997  TIP3      OH2            -9.7771006737       12.5599467121       37.4645014712  TIP3      1805            0.0000000000
     27666      1997  TIP3      H1            -10.1244217282       12.8726876859       36.6086625182  TIP3      1805            0.0000000000
     27667      1997  TIP3      H2             -9.6993655886       11.5853454785       37.3561471868  TIP3      1805            0.0000000000
     27668      1998  TIP3      OH2            -4.0845881742       12.4340699376       34.8775641845  TIP3      1806            0.0000000000
     27669      1998  TIP3      H1             -3.3019282120       13.0229675998       34.8055132887  TIP3      1806            0.0000000000
     27670      1998  TIP3      H2             -4.7887292897       13.0974006131       34.9163136802  TIP3      1806            0.0000000000
     27671      1999  TIP3      OH2           -15.5586393995        9.8170965843       37.4995912290  TIP3      1807            0.0000000000
     27672      1999  TIP3      H1            -15.1819754616        8.9401767605       37.3669296352  TIP3      1807            0.0000000000
     27673      1999  TIP3      H2            -15.8395420459        9.8127560504       38.4224720407  TIP3      1807            0.0000000000
     27674      2000  TIP3      OH2           -11.2799739814       10.9081077169       22.4376566565  TIP3      1808            0.0000000000
     27675      2000  TIP3      H1            -11.3400729676       10.3870733460       23.2226895526  TIP3      1808            0.0000000000
     27676      2000  TIP3      H2            -10.6359042019       10.3658601748       21.9290575701  TIP3      1808            0.0000000000
     27677      2001  TIP3      OH2           -11.6829430694        8.7601360853       34.8367964862  TIP3      1809            0.0000000000
     27678      2001  TIP3      H1            -12.2715924062        9.4847977229       35.1025308784  TIP3      1809            0.0000000000
     27679      2001  TIP3      H2            -11.2920474295        9.1265298458       34.0256383740  TIP3      1809            0.0000000000
     27680      2002  TIP3      OH2            -9.9488606253        8.8601414214       20.5990078528  TIP3      1810            0.0000000000
     27681      2002  TIP3      H1            -10.1042620725        9.0209869995       19.6803125230  TIP3      1810            0.0000000000
     27682      2002  TIP3      H2             -9.1102609783        9.3502295185       20.8070775326  TIP3      1810            0.0000000000
     27683      2003  TIP3      OH2            -6.6136098187       11.3187506659       38.2244898469  TIP3      1811            0.0000000000
     27684      2003  TIP3      H1             -5.6620884482       11.3133514853       38.0414617793  TIP3      1811            0.0000000000
     27685      2003  TIP3      H2             -6.7819983009       10.5449048296       38.7648953996  TIP3      1811            0.0000000000
     27686      2004  TIP3      OH2            -0.5609987323       11.5055194136       20.1884459459  TIP3      1812            0.0000000000
     27687      2004  TIP3      H1             -0.7268097623       11.0888299239       19.3472372835  TIP3      1812            0.0000000000
     27688      2004  TIP3      H2             -0.4238602720       12.4348679168       19.9823995263  TIP3      1812            0.0000000000
     27689      2005  TIP3      OH2           -11.2729508908        6.1442301066       35.8838038747  TIP3      1813            0.0000000000
     27690      2005  TIP3      H1            -11.1616922423        5.4234945348       35.2385756257  TIP3      1813            0.0000000000
     27691      2005  TIP3      H2            -11.3204819692        6.9508637893       35.3342442840  TIP3      1813            0.0000000000
     27692      2006  TIP3      OH2           -10.8610322935        4.4920858880       33.4255375957  TIP3      1814            0.0000000000
     27693      2006  TIP3      H1            -10.3750008288        4.9966234362       32.7330945301  TIP3      1814            0.0000000000
     27694      2006  TIP3      H2            -11.7702448013        4.4385160334       33.0440561248  TIP3      1814            0.0000000000
     27695      2007  TIP3      OH2            -9.3360376127        9.9960956992       33.6870990673  TIP3      1815            0.0000000000
     27696      2007  TIP3      H1             -8.5800908307        9.8363363021       33.1126543752  TIP3      1815            0.0000000000
     27697      2007  TIP3      H2             -9.6941630866       10.8357454835       33.3566715675  TIP3      1815            0.0000000000
     27698      2008  TIP3      OH2            -4.9399160372        7.7185767841       38.7815743621  TIP3      1816            0.0000000000
     27699      2008  TIP3      H1             -4.6880583263        6.8209761393       38.4944727714  TIP3      1816            0.0000000000
     27700      2008  TIP3      H2             -4.0895223685        8.1866589499       38.6354405899  TIP3      1816            0.0000000000
     27701      2009  TIP3      OH2            -3.5985933505       10.5520231465       36.8362764939  TIP3      1817            0.0000000000
     27702      2009  TIP3      H1             -3.8543111839       11.2646287689       36.2099327182  TIP3      1817            0.0000000000
     27703      2009  TIP3      H2             -2.6444710414       10.5089039501       36.6159587917  TIP3      1817            0.0000000000
     27704      2010  TIP3      OH2           -12.8106131904        7.3705161645       37.8590638649  TIP3      1818            0.0000000000
     27705      2010  TIP3      H1            -13.5834969216        6.8132649184       37.6191802105  TIP3      1818            0.0000000000
     27706      2010  TIP3      H2            -12.1726108316        7.0384930380       37.1925549804  TIP3      1818            0.0000000000
     27707      2011  TIP3      OH2           -10.0751602100        1.9501674286       33.8143650929  TIP3      1819            0.0000000000
     27708      2011  TIP3      H1            -10.2743930262        2.9166027696       33.7612076746  TIP3      1819            0.0000000000
     27709      2011  TIP3      H2            -10.8656855477        1.5865498940       33.3720655055  TIP3      1819            0.0000000000
     27710      2012  TIP3      OH2            -8.8067084168        6.2841496503       37.4833777148  TIP3      1820            0.0000000000
     27711      2012  TIP3      H1             -9.1582585552        6.0532561109       38.3603472625  TIP3      1820            0.0000000000
     27712      2012  TIP3      H2             -9.5803718347        6.0957738194       36.9072899877  TIP3      1820            0.0000000000
     27713      2013  TIP3      OH2            -6.0894055450        5.4590680695       36.5717946726  TIP3      1821            0.0000000000
     27714      2013  TIP3      H1             -7.0611462739        5.4621355905       36.6443440413  TIP3      1821            0.0000000000
     27715      2013  TIP3      H2             -5.8226972950        4.7683110889       37.2046676806  TIP3      1821            0.0000000000
     27716      2014  TIP3      OH2            -4.5498876884        4.0578654320       38.4589976343  TIP3      1822            0.0000000000
     27717      2014  TIP3      H1             -4.5559338804        3.0768829653       38.4717998966  TIP3      1822            0.0000000000
     27718      2014  TIP3      H2             -4.7727972477        4.3178995588       39.3766333118  TIP3      1822            0.0000000000
     27719      2015  TIP3      OH2           -14.7163489298        5.3320294959       37.5742954922  TIP3      1823            0.0000000000
     27720      2015  TIP3      H1            -14.4832833241        4.5952899773       36.9786979755  TIP3      1823            0.0000000000
     27721      2015  TIP3      H2            -14.8150253205        4.8617002803       38.4272978021  TIP3      1823            0.0000000000
     27722      2016  TIP3      OH2            -9.8710339813        1.3338679406       36.5374290411  TIP3      1824            0.0000000000
     27723      2016  TIP3      H1             -9.1913522578        0.6269006070       36.5164059062  TIP3      1824            0.0000000000
     27724      2016  TIP3      H2             -9.9895221717        1.4872792389       35.5817693201  TIP3      1824            0.0000000000
     27725      2017  TIP3      OH2            -9.5253153791        2.9506234287       38.6319483640  TIP3      1825            0.0000000000
     27726      2017  TIP3      H1             -9.6782225527        2.4474200799       37.7947286527  TIP3      1825            0.0000000000
     27727      2017  TIP3      H2            -10.1042180584        3.7244405064       38.5213807010  TIP3      1825            0.0000000000
     27728      2018  TIP3      OH2           -10.0105496733       19.8275571052       21.7316146366  TIP3      1826            0.0000000000
     27729      2018  TIP3      H1             -9.0663975090       19.9907494194       21.9154314781  TIP3      1826            0.0000000000
     27730      2018  TIP3      H2            -10.2558837191       20.5309878315       21.1315602125  TIP3      1826            0.0000000000
     27731      2019  TIP3      OH2           -17.7223634018       19.8255129743       26.2649107809  TIP3      1827            0.0000000000
     27732      2019  TIP3      H1            -18.4283737884       19.3333865156       25.8010734813  TIP3      1827            0.0000000000
     27733      2019  TIP3      H2            -17.4137274593       19.1787274879       26.9290162705  TIP3      1827            0.0000000000
     27734      2020  TIP3      OH2           -16.8895976963       17.9489772103       28.1217298234  TIP3      1828            0.0000000000
     27735      2020  TIP3      H1            -17.2345177272       17.0729955356       28.3353022033  TIP3      1828            0.0000000000
     27736      2020  TIP3      H2            -16.6613566149       18.2878794300       29.0042054176  TIP3      1828            0.0000000000
     27737      2021  TIP3      OH2             0.6513160598       18.7631975581       31.0667896711  TIP3      1829            0.0000000000
     27738      2021  TIP3      H1              0.6807467949       18.9258233839       32.0255792017  TIP3      1829            0.0000000000
     27739      2021  TIP3      H2              1.3581555420       19.3417899654       30.7620606924  TIP3      1829            0.0000000000
     27740      2022  TIP3      OH2             0.2472192525       18.3410311649       34.0143702541  TIP3      1830            0.0000000000
     27741      2022  TIP3      H1             -0.2422996972       17.5808050715       33.6342921322  TIP3      1830            0.0000000000
     27742      2022  TIP3      H2              0.7327584857       17.8904270977       34.7253687165  TIP3      1830            0.0000000000
     27743      2023  TIP3      OH2            -1.3215802541       14.0689040142       38.6754331244  TIP3      1831            0.0000000000
     27744      2023  TIP3      H1             -2.2171403756       14.0531867236       39.0640332155  TIP3      1831            0.0000000000
     27745      2023  TIP3      H2             -0.9516255901       14.8757843655       39.0970815618  TIP3      1831            0.0000000000
     27746      2024  TIP3      OH2            -0.0245293461       12.3917539536       24.1298417348  TIP3      1832            0.0000000000
     27747      2024  TIP3      H1              0.8344421570       12.8017425221       24.3001189562  TIP3      1832            0.0000000000
     27748      2024  TIP3      H2             -0.0154854438       11.6713931737       24.7875317349  TIP3      1832            0.0000000000
     27749      2025  TIP3      OH2             0.3792898919       10.4282142186       25.9747674115  TIP3      1833            0.0000000000
     27750      2025  TIP3      H1             -0.3902479780        9.9790440639       26.3844826014  TIP3      1833            0.0000000000
     27751      2025  TIP3      H2              0.9509321268       10.6103979773       26.7454672467  TIP3      1833            0.0000000000
     27752      2026  TIP3      OH2             0.1057328142       13.1774205290       30.9774870559  TIP3      1834            0.0000000000
     27753      2026  TIP3      H1              0.9265637285       12.8069615495       30.6086527332  TIP3      1834            0.0000000000
     27754      2026  TIP3      H2              0.2484709095       14.1337788461       30.8123504758  TIP3      1834            0.0000000000
     27755      2027  TIP3      OH2            -1.3389915831       16.0833419064       33.2554195511  TIP3      1835            0.0000000000
     27756      2027  TIP3      H1             -2.0300572623       16.4248790980       33.8457869231  TIP3      1835            0.0000000000
     27757      2027  TIP3      H2             -1.8880560940       15.6785156090       32.5495631359  TIP3      1835            0.0000000000
     27758      2028  TIP3      OH2            -1.8307540385        8.9467283177       26.5550532422  TIP3      1836            0.0000000000
     27759      2028  TIP3      H1             -2.0149119987        8.0003723790       26.5368705368  TIP3      1836            0.0000000000
     27760      2028  TIP3      H2             -2.1737325271        9.1860527565       27.4366076690  TIP3      1836            0.0000000000
     27761      2029  TIP3      OH2           -16.8214478015       11.0159583472       30.6065320394  TIP3      1837            0.0000000000
     27762      2029  TIP3      H1            -16.6298842477       10.9784584972       29.6533406695  TIP3      1837            0.0000000000
     27763      2029  TIP3      H2            -15.9322873306       10.8821556092       30.9945639972  TIP3      1837            0.0000000000
     27764      2030  TIP3      OH2            -0.9819450730       10.9233984495       36.2764964328  TIP3      1838            0.0000000000
     27765      2030  TIP3      H1             -0.3649736924       10.1671639734       36.3848817744  TIP3      1838            0.0000000000
     27766      2030  TIP3      H2             -0.3780023748       11.6952694901       36.2516725532  TIP3      1838            0.0000000000
     27767      2031  TIP3      OH2             0.5213924000        8.8142681544       36.9067788778  TIP3      1839            0.0000000000
     27768      2031  TIP3      H1             -0.3549066131        8.4071319273       36.7403964974  TIP3      1839            0.0000000000
     27769      2031  TIP3      H2              1.1004694414        8.0371368522       36.8304025699  TIP3      1839            0.0000000000
     27770      2032  TIP3      OH2            -1.7804095898        4.9851032712       20.0507677199  TIP3      1840            0.0000000000
     27771      2032  TIP3      H1             -1.1733275736        4.5578352712       20.6583935577  TIP3      1840            0.0000000000
     27772      2032  TIP3      H2             -2.6243752274        4.5648426615       20.2478999797  TIP3      1840            0.0000000000
     27773      2033  TIP3      OH2            -2.1438061842        6.5388746240       25.0251896576  TIP3      1841            0.0000000000
     27774      2033  TIP3      H1             -1.8822443900        5.5983696913       25.1551053008  TIP3      1841            0.0000000000
     27775      2033  TIP3      H2             -1.3598775221        6.9399021131       24.6553950083  TIP3      1841            0.0000000000
     27776      2034  TIP3      OH2            -1.5267988384        7.0840152299       30.4678852569  TIP3      1842            0.0000000000
     27777      2034  TIP3      H1             -0.5683937458        7.3186218598       30.4509939924  TIP3      1842            0.0000000000
     27778      2034  TIP3      H2             -1.7162271551        7.2249645668       31.4074147657  TIP3      1842            0.0000000000
     27779      2035  TIP3      OH2            -1.4619622219        7.8059125428       33.2455569873  TIP3      1843            0.0000000000
     27780      2035  TIP3      H1             -2.3393055060        8.0958591807       33.5765584480  TIP3      1843            0.0000000000
     27781      2035  TIP3      H2             -1.0276672392        8.6665747287       33.0270402081  TIP3      1843            0.0000000000
     27782      2036  TIP3      OH2           -17.2068033526        6.3330608868       36.7619507188  TIP3      1844            0.0000000000
     27783      2036  TIP3      H1            -16.2717847303        6.1367848476       36.9694667668  TIP3      1844            0.0000000000
     27784      2036  TIP3      H2            -17.6642412396        5.5198209530       37.0708373347  TIP3      1844            0.0000000000
     27785      2037  TIP3      OH2             0.8182657412        1.8598861819       38.5848369554  TIP3      1845            0.0000000000
     27786      2037  TIP3      H1              1.1656470291        1.1885457203       37.9787244421  TIP3      1845            0.0000000000
     27787      2037  TIP3      H2              0.9215564019        2.6794185393       38.0675272890  TIP3      1845            0.0000000000
     27788      2038  TIP3      OH2            -1.4965078808        3.8345638986       25.0756530556  TIP3      1846            0.0000000000
     27789      2038  TIP3      H1             -1.2949585858        3.3621366315       25.9133501176  TIP3      1846            0.0000000000
     27790      2038  TIP3      H2             -2.1036696434        3.1989693097       24.6235809621  TIP3      1846            0.0000000000
     27791      2039  TIP3      OH2           -16.0007839636        4.6353408838       29.6140583104  TIP3      1847            0.0000000000
     27792      2039  TIP3      H1            -15.5558774852        3.8069683971       29.8952112250  TIP3      1847            0.0000000000
     27793      2039  TIP3      H2            -15.4652743507        5.3148894462       30.0430604358  TIP3      1847            0.0000000000
     27794      2040  TIP3      OH2           -17.7267846641        7.6433322542       30.6599281609  TIP3      1848            0.0000000000
     27795      2040  TIP3      H1            -17.1660721060        7.3764985537       29.9163160328  TIP3      1848            0.0000000000
     27796      2040  TIP3      H2            -17.2740259740        8.4457135563       30.9569442222  TIP3      1848            0.0000000000
     27797      2041  TIP3      OH2             0.3261967192        3.9699294087       36.9516024602  TIP3      1849            0.0000000000
     27798      2041  TIP3      H1             -0.6143004617        4.2338164100       36.9070184209  TIP3      1849            0.0000000000
     27799      2041  TIP3      H2              0.3698264969        3.4197474558       36.1527963963  TIP3      1849            0.0000000000
     27800      2042  TIP3      OH2           -17.3660653382        3.9670514622       24.7990726926  TIP3      1850            0.0000000000
     27801      2042  TIP3      H1            -18.3122619124        4.0546158210       24.6091340494  TIP3      1850            0.0000000000
     27802      2042  TIP3      H2            -16.9443298785        4.3292923931       23.9964277500  TIP3      1850            0.0000000000
     27803      2043  TIP3      OH2            -2.6118215479       18.8407203005       26.6830568883  TIP3      1851            0.0000000000
     27804      2043  TIP3      H1             -1.9276058562       18.5412292207       26.0595559518  TIP3      1851            0.0000000000
     27805      2043  TIP3      H2             -2.0975765873       19.3449006352       27.3290632687  TIP3      1851            0.0000000000
     27806      2044  TIP3      OH2           -17.4091801165        2.5525616447       33.0389190445  TIP3      1852            0.0000000000
     27807      2044  TIP3      H1            -18.0796819618        2.3573514775       33.7169340016  TIP3      1852            0.0000000000
     27808      2044  TIP3      H2            -17.8683911923        3.2245633161       32.4944901009  TIP3      1852            0.0000000000
     27809      2045  TIP3      OH2           -15.1763223389       15.7560192360       37.2130364457  TIP3      1853            0.0000000000
     27810      2045  TIP3      H1            -16.0171222804       15.9677166251       36.7759243851  TIP3      1853            0.0000000000
     27811      2045  TIP3      H2            -15.4460903012       15.6962354043       38.1354130382  TIP3      1853            0.0000000000
     27812      2046  TIP3      OH2           -12.2735508051       16.7511647086       33.4788563401  TIP3      1854            0.0000000000
     27813      2046  TIP3      H1            -12.6142175743       17.6131446908       33.2033031114  TIP3      1854            0.0000000000
     27814      2046  TIP3      H2            -11.3484614886       16.8418984749       33.1712520207  TIP3      1854            0.0000000000
     27815      2047  TIP3      OH2            -7.9554941311       18.1763098997       36.3876099913  TIP3      1855            0.0000000000
     27816      2047  TIP3      H1             -7.8124243977       17.8278567283       37.3014345657  TIP3      1855            0.0000000000
     27817      2047  TIP3      H2             -7.0544928375       18.4768884080       36.1487261472  TIP3      1855            0.0000000000
     27818      2048  TIP3      OH2            -5.6612189116       19.4438822499       35.6900317653  TIP3      1856            0.0000000000
     27819      2048  TIP3      H1             -4.9224452495       18.8643376483       35.4505751975  TIP3      1856            0.0000000000
     27820      2048  TIP3      H2             -5.2897676563       19.8762890847       36.4879941218  TIP3      1856            0.0000000000
     27821      2049  TIP3      OH2            -0.6513358124        2.0563887469       34.7940684570  TIP3      1857            0.0000000000
     27822      2049  TIP3      H1             -1.4795808900        2.3558208492       34.3816392956  TIP3      1857            0.0000000000
     27823      2049  TIP3      H2             -0.4764463228        1.2389553043       34.2715079257  TIP3      1857            0.0000000000
     27824      2050  TIP3      OH2           -14.8487600487       19.9904445311       33.4758993940  TIP3      1858            0.0000000000
     27825      2050  TIP3      H1            -15.5802273384       20.4866506628       33.0761316692  TIP3      1858            0.0000000000
     27826      2050  TIP3      H2            -15.1675650813       19.7936149562       34.3683954524  TIP3      1858            0.0000000000
     27827      2051  TIP3      OH2           -12.3795193869       19.5695274264       32.5469979777  TIP3      1859            0.0000000000
     27828      2051  TIP3      H1            -13.2728352905       19.7099063034       32.9422633847  TIP3      1859            0.0000000000
     27829      2051  TIP3      H2            -12.4377575406       20.1585380857       31.7706002739  TIP3      1859            0.0000000000
     27830      2052  TIP3      OH2            -7.6750124539       19.4835808287       31.7116867263  TIP3      1860            0.0000000000
     27831      2052  TIP3      H1             -8.1379794290       20.0395286397       31.0668277494  TIP3      1860            0.0000000000
     27832      2052  TIP3      H2             -7.5406643161       20.1122860260       32.4510271593  TIP3      1860            0.0000000000
     27833      2053  TIP3      OH2            -5.3817697989       18.2948257111       32.7341376658  TIP3      1861            0.0000000000
     27834      2053  TIP3      H1             -6.2431363129       18.5648088088       32.3777799737  TIP3      1861            0.0000000000
     27835      2053  TIP3      H2             -4.9067236663       19.1373972523       32.6392469009  TIP3      1861            0.0000000000
     27836      2054  TIP3      OH2            -2.8045618113       19.8565852725       32.9615575966  TIP3      1862            0.0000000000
     27837      2054  TIP3      H1             -2.8729581373       20.8104193765       32.7313135757  TIP3      1862            0.0000000000
     27838      2054  TIP3      H2             -2.5810556359       19.4842827452       32.0874616722  TIP3      1862            0.0000000000
     27839      2055  TIP3      OH2           -15.3977391319       18.6398904807       30.4145898491  TIP3      1863            0.0000000000
     27840      2055  TIP3      H1            -15.4725226288       18.1829425920       31.2802945225  TIP3      1863            0.0000000000
     27841      2055  TIP3      H2            -14.5811969064       18.2665063266       30.0254153432  TIP3      1863            0.0000000000
     27842      2056  TIP3      OH2           -13.3176762143       17.3523915390       29.0697520857  TIP3      1864            0.0000000000
     27843      2056  TIP3      H1            -13.4854585071       16.4157083280       29.2863294588  TIP3      1864            0.0000000000
     27844      2056  TIP3      H2            -12.4609570950       17.4993290552       29.5250598149  TIP3      1864            0.0000000000
     27845      2057  TIP3      OH2           -10.7136390148       17.8422665945       29.9467624291  TIP3      1865            0.0000000000
     27846      2057  TIP3      H1            -10.5473215107       16.9219983626       29.6777866133  TIP3      1865            0.0000000000
     27847      2057  TIP3      H2            -10.6698839087       17.7771553797       30.9105389469  TIP3      1865            0.0000000000
     27848      2058  TIP3      OH2            -7.3294423510        3.5624979640       28.8775176680  TIP3      1866            0.0000000000
     27849      2058  TIP3      H1             -8.0552099779        2.9534253961       29.1028786897  TIP3      1866            0.0000000000
     27850      2058  TIP3      H2             -6.7210683188        3.0265402695       28.3441279788  TIP3      1866            0.0000000000
     27851      2059  TIP3      OH2            -2.1301735844        1.5471890789       29.1659977219  TIP3      1867            0.0000000000
     27852      2059  TIP3      H1             -1.4860112494        2.1094184965       28.6579808103  TIP3      1867            0.0000000000
     27853      2059  TIP3      H2             -2.9912713736        1.9019305570       28.8933543305  TIP3      1867            0.0000000000
     27854      2060  TIP3      OH2            -0.4564607631        2.7648617633       27.4573465507  TIP3      1868            0.0000000000
     27855      2060  TIP3      H1              0.2271471317        2.2075635513       27.0118423635  TIP3      1868            0.0000000000
     27856      2060  TIP3      H2              0.0387266513        3.6032841225       27.5766395556  TIP3      1868            0.0000000000
     27857      2061  TIP3      OH2           -14.8961690503        2.1118126919       26.9392854226  TIP3      1869            0.0000000000
     27858      2061  TIP3      H1            -15.6919118958        1.9097519338       26.4129764565  TIP3      1869            0.0000000000
     27859      2061  TIP3      H2            -14.4230417314        1.2617310997       26.8682019795  TIP3      1869            0.0000000000
     27860      2062  TIP3      OH2           -10.4122512043        2.0378040532       26.7208279202  TIP3      1870            0.0000000000
     27861      2062  TIP3      H1             -9.5084682626        2.3948179244       26.6379249590  TIP3      1870            0.0000000000
     27862      2062  TIP3      H2            -10.4660630214        1.8196863040       27.6481639913  TIP3      1870            0.0000000000
     27863      2063  TIP3      OH2            -4.8178932461        2.0753089965       28.3867911228  TIP3      1871            0.0000000000
     27864      2063  TIP3      H1             -4.7237938418        2.1719930073       27.4237912209  TIP3      1871            0.0000000000
     27865      2063  TIP3      H2             -5.0471312601        1.1175877274       28.4494874392  TIP3      1871            0.0000000000
     27866      2064  TIP3      OH2            -3.4123495859        2.0802022571       24.0771752738  TIP3      1872            0.0000000000
     27867      2064  TIP3      H1             -4.1239338887        2.6676566656       23.8028892707  TIP3      1872            0.0000000000
     27868      2064  TIP3      H2             -3.8855324563        1.2281976758       24.1880037071  TIP3      1872            0.0000000000
     27869      2065  TIP3      OH2           -16.2467302352       17.8592998591       23.6580682617  TIP3      1873            0.0000000000
     27870      2065  TIP3      H1            -16.8616167728       17.8456731241       22.9266438799  TIP3      1873            0.0000000000
     27871      2065  TIP3      H2            -16.2151104632       18.8038889420       23.8610366698  TIP3      1873            0.0000000000
     27872      2066  TIP3      OH2            -7.3321122195       19.1518004446       21.9831902525  TIP3      1874            0.0000000000
     27873      2066  TIP3      H1             -6.3883388838       19.3610316794       21.8301032389  TIP3      1874            0.0000000000
     27874      2066  TIP3      H2             -7.4953907828       18.6285059883       21.1925691573  TIP3      1874            0.0000000000
     27875      2067  TIP3      OH2            -0.6322112591       18.6445989004       24.7142417278  TIP3      1875            0.0000000000
     27876      2067  TIP3      H1             -0.8360720016       17.8595387329       24.1505414613  TIP3      1875            0.0000000000
     27877      2067  TIP3      H2             -0.6952003313       19.3725457286       24.0513183546  TIP3      1875            0.0000000000
     27878      2068  TIP3      OH2           -15.0039928471        2.6486174812       36.3859069337  TIP3      1876            0.0000000000
     27879      2068  TIP3      H1            -15.3848642593        1.8531728820       36.8060968872  TIP3      1876            0.0000000000
     27880      2068  TIP3      H2            -14.0884579718        2.6121572652       36.7484528172  TIP3      1876            0.0000000000
     27881      2069  TIP3      OH2           -12.9986920100        2.0440272675       38.0285082571  TIP3      1877            0.0000000000
     27882      2069  TIP3      H1            -12.1181488724        1.6923117808       37.7836969998  TIP3      1877            0.0000000000
     27883      2069  TIP3      H2            -13.3768819092        1.2400711681       38.4370966324  TIP3      1877            0.0000000000
     27884      2070  TIP3      OH2           -14.4287818505       18.7076086765       20.6642381687  TIP3      1878            0.0000000000
     27885      2070  TIP3      H1            -14.5948101005       19.0733397386       21.5293109344  TIP3      1878            0.0000000000
     27886      2070  TIP3      H2            -13.5940730734       18.2247836087       20.7855912217  TIP3      1878            0.0000000000
     27887      2071  TIP3      OH2            -4.5940430234        1.3283479682       38.1701938326  TIP3      1879            0.0000000000
     27888      2071  TIP3      H1             -4.4972202411        0.8508861375       39.0161625370  TIP3      1879            0.0000000000
     27889      2071  TIP3      H2             -3.6787774244        1.2903914975       37.8212726279  TIP3      1879            0.0000000000
     27890      2072  TIP3      OH2            -1.3915667557       17.3701984307       36.8376238233  TIP3      1880            0.0000000000
     27891      2072  TIP3      H1             -2.1852104574       17.2300967335       36.2757203389  TIP3      1880            0.0000000000
     27892      2072  TIP3      H2             -1.4958084804       18.3242504428       37.0240589987  TIP3      1880            0.0000000000
     27893      2073  TIP3      OH2            13.0450765603       11.2482316992       26.8183361184  TIP3      1881            0.0000000000
     27894      2073  TIP3      H1             13.0737175742       12.2263222914       26.7471493408  TIP3      1881            0.0000000000
     27895      2073  TIP3      H2             12.3262518369       11.0425364697       26.2284066488  TIP3      1881            0.0000000000
     27896      2074  TIP3      OH2            11.9017037680       10.5108927471       30.2844762824  TIP3      1882            0.0000000000
     27897      2074  TIP3      H1             11.9012522972        9.8589271353       30.9975090952  TIP3      1882            0.0000000000
     27898      2074  TIP3      H2             11.5651123984       10.0042503834       29.5275468431  TIP3      1882            0.0000000000
     27899      2075  TIP3      OH2             4.2681048378       10.1787834691       31.8434812851  TIP3      1883            0.0000000000
     27900      2075  TIP3      H1              4.3505967933        9.4976168666       32.5444809729  TIP3      1883            0.0000000000
     27901      2075  TIP3      H2              5.0149075232       10.7533702356       32.0645564222  TIP3      1883            0.0000000000
     27902      2076  TIP3      OH2            15.6041032457       13.4555100137       28.5744674693  TIP3      1884            0.0000000000
     27903      2076  TIP3      H1             15.1862457984       12.7398640736       29.0640991746  TIP3      1884            0.0000000000
     27904      2076  TIP3      H2             15.6227126198       14.1643859280       29.2441830263  TIP3      1884            0.0000000000
     27905      2077  TIP3      OH2             5.1895015727       14.6188386827       30.3646826314  TIP3      1885            0.0000000000
     27906      2077  TIP3      H1              4.8787004674       13.7592390044       30.0245655971  TIP3      1885            0.0000000000
     27907      2077  TIP3      H2              6.1478044919       14.4412480823       30.3972283136  TIP3      1885            0.0000000000
     27908      2078  TIP3      OH2             2.5227213095       10.3777039990       27.9169346037  TIP3      1886            0.0000000000
     27909      2078  TIP3      H1              2.8141355314        9.6048929501       28.4361921725  TIP3      1886            0.0000000000
     27910      2078  TIP3      H2              3.2757930436       10.5438261278       27.3337746338  TIP3      1886            0.0000000000
     27911      2079  TIP3      OH2            12.7216509262       18.6103516068       28.8109987689  TIP3      1887            0.0000000000
     27912      2079  TIP3      H1             13.3685946142       17.9175076727       28.5267962333  TIP3      1887            0.0000000000
     27913      2079  TIP3      H2             12.5105832407       18.2855880896       29.6853320609  TIP3      1887            0.0000000000
     27914      2080  TIP3      OH2            10.2898813822       12.9094260709       30.7499891738  TIP3      1888            0.0000000000
     27915      2080  TIP3      H1             10.6291080622       12.2809311525       30.0935463448  TIP3      1888            0.0000000000
     27916      2080  TIP3      H2             11.0931194453       13.0629082083       31.2772238691  TIP3      1888            0.0000000000
     27917      2081  TIP3      OH2            18.8936611024        4.5639897016       31.4909564770  TIP3      1889            0.0000000000
     27918      2081  TIP3      H1             19.0612969527        5.1580770653       32.2548292056  TIP3      1889            0.0000000000
     27919      2081  TIP3      H2             19.4528916041        4.9898579745       30.8257631522  TIP3      1889            0.0000000000
     27920      2082  TIP3      OH2            13.4551836703        7.3763306609       31.0680835904  TIP3      1890            0.0000000000
     27921      2082  TIP3      H1             13.6201208895        6.4167140284       31.0712376565  TIP3      1890            0.0000000000
     27922      2082  TIP3      H2             13.3527491856        7.5189986904       30.1081764988  TIP3      1890            0.0000000000
     27923      2083  TIP3      OH2             6.5705201301        5.4602985934       28.2997121419  TIP3      1891            0.0000000000
     27924      2083  TIP3      H1              6.6994898291        6.2941236652       27.8129587908  TIP3      1891            0.0000000000
     27925      2083  TIP3      H2              6.1838062961        4.8806660028       27.6116325963  TIP3      1891            0.0000000000
     27926      2084  TIP3      OH2            14.2968712237        5.5547672593       26.6651724134  TIP3      1892            0.0000000000
     27927      2084  TIP3      H1             14.9639611002        5.2332932076       27.3194372367  TIP3      1892            0.0000000000
     27928      2084  TIP3      H2             14.8696662049        6.0934565593       26.0944871340  TIP3      1892            0.0000000000
     27929      2085  TIP3      OH2             3.1968032415        7.8761073774       29.0227642489  TIP3      1893            0.0000000000
     27930      2085  TIP3      H1              3.8623124255        7.3330073470       29.4923094435  TIP3      1893            0.0000000000
     27931      2085  TIP3      H2              3.3188611696        7.5470430620       28.1305304725  TIP3      1893            0.0000000000
     27932      2086  TIP3      OH2             8.3836924608        9.4281582043       28.3008993800  TIP3      1894            0.0000000000
     27933      2086  TIP3      H1              9.0168398354        8.8473347220       28.7528940422  TIP3      1894            0.0000000000
     27934      2086  TIP3      H2              7.8311874336        8.7635560706       27.8396151112  TIP3      1894            0.0000000000
     27935      2087  TIP3      OH2            19.3277750152        5.9803213168       33.7625311247  TIP3      1895            0.0000000000
     27936      2087  TIP3      H1             18.7090109862        6.7395994482       33.6668304486  TIP3      1895            0.0000000000
     27937      2087  TIP3      H2             19.3653990930        5.8826813439       34.7202732528  TIP3      1895            0.0000000000
     27938      2088  TIP3      OH2             5.4742853111        4.3648494327       32.3313178901  TIP3      1896            0.0000000000
     27939      2088  TIP3      H1              5.1942038757        4.9315794837       31.5843711840  TIP3      1896            0.0000000000
     27940      2088  TIP3      H2              4.7948076390        4.5933301513       33.0120270730  TIP3      1896            0.0000000000
     27941      2089  TIP3      OH2            12.7807373438       13.8615666276       25.8837179485  TIP3      1897            0.0000000000
     27942      2089  TIP3      H1             12.4835595919       13.5848321893       25.0168387913  TIP3      1897            0.0000000000
     27943      2089  TIP3      H2             12.4599239315       14.7887528931       25.9625940678  TIP3      1897            0.0000000000
     27944      2090  TIP3      OH2             7.9948356082       12.0069961841       32.5759420814  TIP3      1898            0.0000000000
     27945      2090  TIP3      H1              7.2848889565       12.6510907208       32.7850229024  TIP3      1898            0.0000000000
     27946      2090  TIP3      H2              8.7023711028       12.6052734880       32.2885459902  TIP3      1898            0.0000000000
     27947      2091  TIP3      OH2            16.0951550382        4.9001865882       28.6515718405  TIP3      1899            0.0000000000
     27948      2091  TIP3      H1             15.8970393304        4.1240804120       29.1847497392  TIP3      1899            0.0000000000
     27949      2091  TIP3      H2             16.7826007899        5.3326447477       29.1846419533  TIP3      1899            0.0000000000
     27950      2092  TIP3      OH2             5.0273709962        6.2430657215       30.3347016556  TIP3      1900            0.0000000000
     27951      2092  TIP3      H1              5.6685589033        6.9073174550       30.6726679098  TIP3      1900            0.0000000000
     27952      2092  TIP3      H2              5.5705478901        5.7972724548       29.6373324475  TIP3      1900            0.0000000000
     27953      2093  TIP3      OH2             6.4376232252       14.0013047894       33.3949665229  TIP3      1901            0.0000000000
     27954      2093  TIP3      H1              6.3950468092       14.9161496382       33.0530972544  TIP3      1901            0.0000000000
     27955      2093  TIP3      H2              5.5539424958       13.9298801403       33.8366429525  TIP3      1901            0.0000000000
     27956      2094  TIP3      OH2             2.5287854985       13.6451667629       24.1886081468  TIP3      1902            0.0000000000
     27957      2094  TIP3      H1              2.2323865328       13.9292524484       23.3176466879  TIP3      1902            0.0000000000
     27958      2094  TIP3      H2              2.5855528159       14.4744287157       24.7052521988  TIP3      1902            0.0000000000
     27959      2095  TIP3      OH2            16.1317679795       15.2916708300       30.9408287233  TIP3      1903            0.0000000000
     27960      2095  TIP3      H1             15.1638244423       15.4002739503       31.0640376766  TIP3      1903            0.0000000000
     27961      2095  TIP3      H2             16.4008206227       16.2092923882       30.7453298376  TIP3      1903            0.0000000000
     27962      2096  TIP3      OH2            16.4508113009        3.5764002363       32.3327861109  TIP3      1904            0.0000000000
     27963      2096  TIP3      H1             15.7247062370        4.2082333348       32.2475477710  TIP3      1904            0.0000000000
     27964      2096  TIP3      H2             17.1612564078        3.9970401207       31.8068295247  TIP3      1904            0.0000000000
     27965      2097  TIP3      OH2             9.4253798078        1.6934383751       29.8088860687  TIP3      1905            0.0000000000
     27966      2097  TIP3      H1              9.2828136642        0.7299694391       29.7272837030  TIP3      1905            0.0000000000
     27967      2097  TIP3      H2              8.5428926961        2.0002220488       30.1014255355  TIP3      1905            0.0000000000
     27968      2098  TIP3      OH2            14.3967575634       17.0833245338       27.5532541177  TIP3      1906            0.0000000000
     27969      2098  TIP3      H1             14.8196240478       16.3630548153       27.0397255474  TIP3      1906            0.0000000000
     27970      2098  TIP3      H2             14.8032062142       17.8651159468       27.1290819863  TIP3      1906            0.0000000000
     27971      2099  TIP3      OH2            15.6095691297       15.0300282404       26.0573745189  TIP3      1907            0.0000000000
     27972      2099  TIP3      H1             15.3379524859       14.3241715585       25.4340487156  TIP3      1907            0.0000000000
     27973      2099  TIP3      H2             15.6392103771       14.5171119118       26.8872380763  TIP3      1907            0.0000000000
     27974      2100  TIP3      OH2            17.2514650459       13.5911045634       34.5511126439  TIP3      1908            0.0000000000
     27975      2100  TIP3      H1             17.3538339956       12.9400624987       33.8245223519  TIP3      1908            0.0000000000
     27976      2100  TIP3      H2             17.4120506838       14.4408396016       34.1128431797  TIP3      1908            0.0000000000
     27977      2101  TIP3      OH2            19.1060806525        9.9082128698       32.5899163068  TIP3      1909            0.0000000000
     27978      2101  TIP3      H1             18.4425299187       10.6262872756       32.6318545755  TIP3      1909            0.0000000000
     27979      2101  TIP3      H2             19.5925775146       10.1389416779       31.7779970210  TIP3      1909            0.0000000000
     27980      2102  TIP3      OH2            15.1402938163       10.7092509372       25.2474029916  TIP3      1910            0.0000000000
     27981      2102  TIP3      H1             14.4175340278       10.9391475769       25.8590464371  TIP3      1910            0.0000000000
     27982      2102  TIP3      H2             15.6380937878       10.0367112892       25.7409282828  TIP3      1910            0.0000000000
     27983      2103  TIP3      OH2            15.0921811067        8.8496734194       34.3049080159  TIP3      1911            0.0000000000
     27984      2103  TIP3      H1             15.1078992458        9.6403545741       34.9044979247  TIP3      1911            0.0000000000
     27985      2103  TIP3      H2             14.4430581761        9.1831480944       33.6614096152  TIP3      1911            0.0000000000
     27986      2104  TIP3      OH2             6.7749136253       11.3605045031       27.1516320831  TIP3      1912            0.0000000000
     27987      2104  TIP3      H1              6.4551353917       10.9804617413       26.2980041919  TIP3      1912            0.0000000000
     27988      2104  TIP3      H2              7.3790497312       10.6623259586       27.4846200430  TIP3      1912            0.0000000000
     27989      2105  TIP3      OH2             8.0929063594       14.7480161641       29.8336998676  TIP3      1913            0.0000000000
     27990      2105  TIP3      H1              8.0785137660       14.2218890360       29.0239194026  TIP3      1913            0.0000000000
     27991      2105  TIP3      H2              8.8787911794       14.3863232749       30.2827779621  TIP3      1913            0.0000000000
     27992      2106  TIP3      OH2             7.1096238827       10.1051775478       30.8003990487  TIP3      1914            0.0000000000
     27993      2106  TIP3      H1              7.6692031586       10.2215312861       30.0101535053  TIP3      1914            0.0000000000
     27994      2106  TIP3      H2              7.4875738446       10.7690551710       31.4181116829  TIP3      1914            0.0000000000
     27995      2107  TIP3      OH2            13.5146247741       15.6712985259       31.5081962357  TIP3      1915            0.0000000000
     27996      2107  TIP3      H1             13.2271633772       16.3085126725       32.1671823456  TIP3      1915            0.0000000000
     27997      2107  TIP3      H2             13.2592311836       14.8185195377       31.9347159224  TIP3      1915            0.0000000000
     27998      2108  TIP3      OH2             8.0563011114       14.5366774064       35.4946336382  TIP3      1916            0.0000000000
     27999      2108  TIP3      H1              7.6507105544       15.2782430859       35.9879108847  TIP3      1916            0.0000000000
     28000      2108  TIP3      H2              7.3787943485       14.3385758315       34.8022625911  TIP3      1916            0.0000000000
     28001      2109  TIP3      OH2             4.9938721149       10.6953531805       34.6615357960  TIP3      1917            0.0000000000
     28002      2109  TIP3      H1              5.0435419001       11.3633321330       35.3721493783  TIP3      1917            0.0000000000
     28003      2109  TIP3      H2              4.0554706671       10.7903264019       34.4402565903  TIP3      1917            0.0000000000
     28004      2110  TIP3      OH2            11.7427554844       16.6189920661       26.3682718952  TIP3      1918            0.0000000000
     28005      2110  TIP3      H1             12.1812055673       16.9236906206       27.1707152840  TIP3      1918            0.0000000000
     28006      2110  TIP3      H2             11.1914197864       17.3753599646       26.1300241328  TIP3      1918            0.0000000000
     28007      2111  TIP3      OH2             6.2950497202       16.5739588383       36.2487642508  TIP3      1919            0.0000000000
     28008      2111  TIP3      H1              6.2445890896       16.4675261272       35.2840399942  TIP3      1919            0.0000000000
     28009      2111  TIP3      H2              5.3607758518       16.4453560486       36.5083551127  TIP3      1919            0.0000000000
     28010      2112  TIP3      OH2             5.7253010907       10.4153946625       24.8168556561  TIP3      1920            0.0000000000
     28011      2112  TIP3      H1              5.4978748056       11.1686832111       24.2261776084  TIP3      1920            0.0000000000
     28012      2112  TIP3      H2              5.1050378732        9.7571093069       24.5144420639  TIP3      1920            0.0000000000
     28013      2113  TIP3      OH2             1.8303525426       12.8062797463       33.6472565755  TIP3      1921            0.0000000000
     28014      2113  TIP3      H1              1.3832776541       12.7285333137       32.7853762474  TIP3      1921            0.0000000000
     28015      2113  TIP3      H2              1.9045909448       11.8591659088       33.8673688072  TIP3      1921            0.0000000000
     28016      2114  TIP3      OH2             1.5924363667       15.5518318635       30.4261701839  TIP3      1922            0.0000000000
     28017      2114  TIP3      H1              2.5500489616       15.4288893120       30.4125426648  TIP3      1922            0.0000000000
     28018      2114  TIP3      H2              1.5096491219       16.3626588749       30.9427282981  TIP3      1922            0.0000000000
     28019      2115  TIP3      OH2            19.8253236691       16.2497141931       36.0923826514  TIP3      1923            0.0000000000
     28020      2115  TIP3      H1             19.7168251558       15.2873151633       36.1005427390  TIP3      1923            0.0000000000
     28021      2115  TIP3      H2             18.9714923284       16.4966272783       36.5249624659  TIP3      1923            0.0000000000
     28022      2116  TIP3      OH2            10.7696931180       15.8131384286       34.9600604191  TIP3      1924            0.0000000000
     28023      2116  TIP3      H1             10.8459420677       16.6325747547       35.5046875924  TIP3      1924            0.0000000000
     28024      2116  TIP3      H2              9.9115240113       15.4360419361       35.2350873170  TIP3      1924            0.0000000000
     28025      2117  TIP3      OH2            11.2439650072       19.5520030067       24.7628097448  TIP3      1925            0.0000000000
     28026      2117  TIP3      H1             11.1269588306       19.4987414597       23.7983325331  TIP3      1925            0.0000000000
     28027      2117  TIP3      H2             11.2448659222       20.5145902910       24.9482704266  TIP3      1925            0.0000000000
     28028      2118  TIP3      OH2             4.8516367747       18.4277857606       26.6289973936  TIP3      1926            0.0000000000
     28029      2118  TIP3      H1              5.0174848606       17.9837299641       27.4875806129  TIP3      1926            0.0000000000
     28030      2118  TIP3      H2              4.0247887879       17.9981448646       26.3661536448  TIP3      1926            0.0000000000
     28031      2119  TIP3      OH2            14.2397635898       18.7268076421       21.7846646969  TIP3      1927            0.0000000000
     28032      2119  TIP3      H1             14.7469545632       18.0254732679       21.3197038589  TIP3      1927            0.0000000000
     28033      2119  TIP3      H2             14.3140041639       18.4740078714       22.7184970535  TIP3      1927            0.0000000000
     28034      2120  TIP3      OH2            13.9496070542       18.6581464777       24.5256455205  TIP3      1928            0.0000000000
     28035      2120  TIP3      H1             12.9951901965       18.7458656753       24.7216032904  TIP3      1928            0.0000000000
     28036      2120  TIP3      H2             14.2166965917       17.9450867183       25.1284369105  TIP3      1928            0.0000000000
     28037      2121  TIP3      OH2            16.9970739911        7.6977384284       36.5655385947  TIP3      1929            0.0000000000
     28038      2121  TIP3      H1             16.4954708907        8.1867847820       35.8882186721  TIP3      1929            0.0000000000
     28039      2121  TIP3      H2             16.9587786256        6.7820501659       36.2649449779  TIP3      1929            0.0000000000
     28040      2122  TIP3      OH2             4.1161026120       14.1258271107       34.5966798513  TIP3      1930            0.0000000000
     28041      2122  TIP3      H1              4.3402745363       13.7568041496       35.4778065278  TIP3      1930            0.0000000000
     28042      2122  TIP3      H2              3.2484323614       13.7265474961       34.3820391334  TIP3      1930            0.0000000000
     28043      2123  TIP3      OH2             6.7922629781        2.6001205875       30.5427295629  TIP3      1931            0.0000000000
     28044      2123  TIP3      H1              5.8884423760        2.4762679478       30.1789155557  TIP3      1931            0.0000000000
     28045      2123  TIP3      H2              6.6671149711        3.4314442843       31.0276331848  TIP3      1931            0.0000000000
     28046      2124  TIP3      OH2            11.4363832363        2.2698407723       33.9112628110  TIP3      1932            0.0000000000
     28047      2124  TIP3      H1             11.8311124820        1.8488327593       34.6979581090  TIP3      1932            0.0000000000
     28048      2124  TIP3      H2             10.4657373666        2.1432026774       34.0547702173  TIP3      1932            0.0000000000
     28049      2125  TIP3      OH2            14.7258112206        6.1009446587       34.7898221349  TIP3      1933            0.0000000000
     28050      2125  TIP3      H1             14.1744042949        5.8996142034       35.5864185612  TIP3      1933            0.0000000000
     28051      2125  TIP3      H2             14.5531451044        7.0334795428       34.5744330149  TIP3      1933            0.0000000000
     28052      2126  TIP3      OH2             6.8965020215        7.5660979810       31.7921571865  TIP3      1934            0.0000000000
     28053      2126  TIP3      H1              6.1622668563        7.5549211897       32.4322662831  TIP3      1934            0.0000000000
     28054      2126  TIP3      H2              6.8524809511        8.4800272631       31.4284626056  TIP3      1934            0.0000000000
     28055      2127  TIP3      OH2             6.8428663403        7.6829564280       26.6719183612  TIP3      1935            0.0000000000
     28056      2127  TIP3      H1              5.9131363469        7.4257108353       26.5210217117  TIP3      1935            0.0000000000
     28057      2127  TIP3      H2              7.2433936323        7.4024770590       25.8224937625  TIP3      1935            0.0000000000
     28058      2128  TIP3      OH2            12.3279361164        8.1559708954       25.3633804359  TIP3      1936            0.0000000000
     28059      2128  TIP3      H1             11.9749920249        9.0100438429       25.1206304263  TIP3      1936            0.0000000000
     28060      2128  TIP3      H2             13.1012467233        8.0590331468       24.7838490811  TIP3      1936            0.0000000000
     28061      2129  TIP3      OH2            11.4361936585        8.3892365632       36.8562087496  TIP3      1937            0.0000000000
     28062      2129  TIP3      H1             10.9102802311        7.6226437408       37.1857971120  TIP3      1937            0.0000000000
     28063      2129  TIP3      H2             12.2719230077        8.3046839619       37.3489829155  TIP3      1937            0.0000000000
     28064      2130  TIP3      OH2            13.4047903912        7.6741022358       28.2405049248  TIP3      1938            0.0000000000
     28065      2130  TIP3      H1             13.1532593993        8.2288818891       27.4894070029  TIP3      1938            0.0000000000
     28066      2130  TIP3      H2             13.5242688529        6.8169962241       27.7806337303  TIP3      1938            0.0000000000
     28067      2131  TIP3      OH2             4.5249456281        7.8290595177       33.4853340932  TIP3      1939            0.0000000000
     28068      2131  TIP3      H1              4.5934416216        8.2351679870       34.3668192269  TIP3      1939            0.0000000000
     28069      2131  TIP3      H2              4.0790910961        6.9911529382       33.6880789141  TIP3      1939            0.0000000000
     28070      2132  TIP3      OH2             1.1998234152        4.9634662857       27.4367679724  TIP3      1940            0.0000000000
     28071      2132  TIP3      H1              1.8440300540        4.8832539468       28.1756089846  TIP3      1940            0.0000000000
     28072      2132  TIP3      H2              1.6364774498        4.5212422606       26.6831165148  TIP3      1940            0.0000000000
     28073      2133  TIP3      OH2            12.6082485063        9.2691295544       32.8388784243  TIP3      1941            0.0000000000
     28074      2133  TIP3      H1             12.9903999955        8.5866369304       32.2504800873  TIP3      1941            0.0000000000
     28075      2133  TIP3      H2             12.1514895050        8.7363064645       33.5136281642  TIP3      1941            0.0000000000
     28076      2134  TIP3      OH2             9.4091401428        5.2329644342       27.6628565725  TIP3      1942            0.0000000000
     28077      2134  TIP3      H1              8.4787262545        5.2531389920       27.9699630921  TIP3      1942            0.0000000000
     28078      2134  TIP3      H2              9.8979512588        5.0841663985       28.4862531688  TIP3      1942            0.0000000000
     28079      2135  TIP3      OH2             4.1967846813        6.8201590489       26.4801453893  TIP3      1943            0.0000000000
     28080      2135  TIP3      H1              3.2975183061        6.8534519662       26.1471442885  TIP3      1943            0.0000000000
     28081      2135  TIP3      H2              4.5313410671        5.9567753826       26.1571598369  TIP3      1943            0.0000000000
     28082      2136  TIP3      OH2             7.8282376268        6.8728325160       24.1805871891  TIP3      1944            0.0000000000
     28083      2136  TIP3      H1              8.7908985575        6.9145449897       24.3378480249  TIP3      1944            0.0000000000
     28084      2136  TIP3      H2              7.6238188246        7.5164424485       23.4827054273  TIP3      1944            0.0000000000
     28085      2137  TIP3      OH2            13.8211077691        4.4735031774       30.9081201390  TIP3      1945            0.0000000000
     28086      2137  TIP3      H1             13.1312779000        4.5296308659       31.6065531232  TIP3      1945            0.0000000000
     28087      2137  TIP3      H2             13.3117516646        4.2299397066       30.1234502618  TIP3      1945            0.0000000000
     28088      2138  TIP3      OH2            17.0194696323       20.1245987422       37.2648587090  TIP3      1946            0.0000000000
     28089      2138  TIP3      H1             17.2918770536       20.5089196432       36.4096660470  TIP3      1946            0.0000000000
     28090      2138  TIP3      H2             17.7470538580       20.4330359141       37.8307201821  TIP3      1946            0.0000000000
     28091      2139  TIP3      OH2             4.7096364038       12.5798172566       36.8133350788  TIP3      1947            0.0000000000
     28092      2139  TIP3      H1              5.4109639694       12.8330316556       37.4358737395  TIP3      1947            0.0000000000
     28093      2139  TIP3      H2              3.9173253229       12.6806207157       37.3840541064  TIP3      1947            0.0000000000
     28094      2140  TIP3      OH2            10.6998814056        7.9997987593       29.5456493571  TIP3      1948            0.0000000000
     28095      2140  TIP3      H1             11.2947328913        7.4469521351       29.0271016132  TIP3      1948            0.0000000000
     28096      2140  TIP3      H2             10.5517638592        7.4616741346       30.3377824114  TIP3      1948            0.0000000000
     28097      2141  TIP3      OH2             5.6991976000        4.1797223060       25.9894459251  TIP3      1949            0.0000000000
     28098      2141  TIP3      H1              5.3852399557        3.2543127313       25.9950400393  TIP3      1949            0.0000000000
     28099      2141  TIP3      H2              6.4939934503        4.0778538751       25.4459250196  TIP3      1949            0.0000000000
     28100      2142  TIP3      OH2             9.3359082630        6.3281113284       31.9811076863  TIP3      1950            0.0000000000
     28101      2142  TIP3      H1              8.5104553594        6.8435298957       32.0694794780  TIP3      1950            0.0000000000
     28102      2142  TIP3      H2              9.8897399596        6.6772333816       32.7051712386  TIP3      1950            0.0000000000
     28103      2143  TIP3      OH2            17.1050852365       11.7467478779       32.4754143869  TIP3      1951            0.0000000000
     28104      2143  TIP3      H1             17.6733490607       12.2291775704       31.8493215295  TIP3      1951            0.0000000000
     28105      2143  TIP3      H2             16.2454256895       11.8029171178       32.0101904370  TIP3      1951            0.0000000000
     28106      2144  TIP3      OH2            11.3605402971       12.8106207609       34.8814718749  TIP3      1952            0.0000000000
     28107      2144  TIP3      H1             11.0935636129       12.3902064215       35.7100940801  TIP3      1952            0.0000000000
     28108      2144  TIP3      H2             11.1863388070       13.7395467761       35.0365068276  TIP3      1952            0.0000000000
     28109      2145  TIP3      OH2             5.0449595575       11.9471013990       29.4759698112  TIP3      1953            0.0000000000
     28110      2145  TIP3      H1              5.7171019884       11.8603931313       28.7685818995  TIP3      1953            0.0000000000
     28111      2145  TIP3      H2              5.1013843543       11.0875239540       29.9320945250  TIP3      1953            0.0000000000
     28112      2146  TIP3      OH2             2.0197701569       10.3487099953       34.7420718875  TIP3      1954            0.0000000000
     28113      2146  TIP3      H1              2.2008728389        9.9047025927       35.5909552374  TIP3      1954            0.0000000000
     28114      2146  TIP3      H2              1.4051550854        9.7328657164       34.3009787843  TIP3      1954            0.0000000000
     28115      2147  TIP3      OH2             9.0321096677        9.8942218068       36.9199170891  TIP3      1955            0.0000000000
     28116      2147  TIP3      H1              8.7275957493        9.6069042561       36.0492833207  TIP3      1955            0.0000000000
     28117      2147  TIP3      H2              9.9751976071        9.6193371127       36.9219861116  TIP3      1955            0.0000000000
     28118      2148  TIP3      OH2            13.7099207523       15.2750896143       34.8464872602  TIP3      1956            0.0000000000
     28119      2148  TIP3      H1             12.7759520713       15.4215105353       34.6402363170  TIP3      1956            0.0000000000
     28120      2148  TIP3      H2             13.6909156892       15.4931853571       35.7998813692  TIP3      1956            0.0000000000
     28121      2149  TIP3      OH2            19.3961621669       13.3034616070       36.0600068361  TIP3      1957            0.0000000000
     28122      2149  TIP3      H1             18.4844082141       13.4953686783       35.7123662442  TIP3      1957            0.0000000000
     28123      2149  TIP3      H2             19.9269066090       13.2390471666       35.2418757153  TIP3      1957            0.0000000000
     28124      2150  TIP3      OH2            17.7107674173       16.2487456551       23.6408795033  TIP3      1958            0.0000000000
     28125      2150  TIP3      H1             17.3240798853       15.4269473054       23.9854697415  TIP3      1958            0.0000000000
     28126      2150  TIP3      H2             17.9842201449       16.0156074934       22.7376922913  TIP3      1958            0.0000000000
     28127      2151  TIP3      OH2            14.8872364774       11.0789828288       30.7269717518  TIP3      1959            0.0000000000
     28128      2151  TIP3      H1             13.9458934756       10.8566652660       30.6474029083  TIP3      1959            0.0000000000
     28129      2151  TIP3      H2             15.3169949528       10.3000019020       30.3293479031  TIP3      1959            0.0000000000
     28130      2152  TIP3      OH2             7.3930254334       15.3963499360       26.8655281267  TIP3      1960            0.0000000000
     28131      2152  TIP3      H1              7.9098573800       16.1944781468       26.6493799683  TIP3      1960            0.0000000000
     28132      2152  TIP3      H2              6.5225876286       15.6392143950       26.5274279885  TIP3      1960            0.0000000000
     28133      2153  TIP3      OH2             3.1043607422       10.1995468143       21.5994349792  TIP3      1961            0.0000000000
     28134      2153  TIP3      H1              3.7853417564       10.8971747026       21.7212637665  TIP3      1961            0.0000000000
     28135      2153  TIP3      H2              2.2789672205       10.6814411599       21.6215453974  TIP3      1961            0.0000000000
     28136      2154  TIP3      OH2             8.8423510150       13.0658445527       26.4259081657  TIP3      1962            0.0000000000
     28137      2154  TIP3      H1              8.5173960358       13.9859257063       26.4732923510  TIP3      1962            0.0000000000
     28138      2154  TIP3      H2              8.0903995474       12.5787669801       26.8094545540  TIP3      1962            0.0000000000
     28139      2155  TIP3      OH2             9.2746948448       17.2449551264       32.7822065611  TIP3      1963            0.0000000000
     28140      2155  TIP3      H1              9.7295414210       18.0535715466       32.5006018791  TIP3      1963            0.0000000000
     28141      2155  TIP3      H2              9.8866017825       16.9073740772       33.4622714964  TIP3      1963            0.0000000000
     28142      2156  TIP3      OH2             7.5140405334       18.0117765090       26.0271015438  TIP3      1964            0.0000000000
     28143      2156  TIP3      H1              6.5568155012       18.2019878649       26.0206766868  TIP3      1964            0.0000000000
     28144      2156  TIP3      H2              7.8751472763       18.8886260978       26.2274821017  TIP3      1964            0.0000000000
     28145      2157  TIP3      OH2            12.7987694199       13.2489415131       32.4149700850  TIP3      1965            0.0000000000
     28146      2157  TIP3      H1             12.4803045515       13.0509262471       33.3216867839  TIP3      1965            0.0000000000
     28147      2157  TIP3      H2             13.4414782432       12.5415458638       32.2410038535  TIP3      1965            0.0000000000
     28148      2158  TIP3      OH2            15.6082848752       17.8298123780       34.8983254372  TIP3      1966            0.0000000000
     28149      2158  TIP3      H1             14.9230887941       17.3318186447       34.4118595562  TIP3      1966            0.0000000000
     28150      2158  TIP3      H2             15.7979922212       18.5283231119       34.2367316942  TIP3      1966            0.0000000000
     28151      2159  TIP3      OH2             3.6746841366        5.0877817817       34.2920666442  TIP3      1967            0.0000000000
     28152      2159  TIP3      H1              2.7662085387        5.4337516649       34.2610496396  TIP3      1967            0.0000000000
     28153      2159  TIP3      H2              3.5610251566        4.2368443017       34.7443580388  TIP3      1967            0.0000000000
     28154      2160  TIP3      OH2            15.8986300665       13.0348381236       23.8728887603  TIP3      1968            0.0000000000
     28155      2160  TIP3      H1             15.6935683285       12.1369115053       24.2259379081  TIP3      1968            0.0000000000
     28156      2160  TIP3      H2             16.8715057659       12.9677360566       23.8338178726  TIP3      1968            0.0000000000
     28157      2161  TIP3      OH2             3.2869975033       16.8718373866       32.7150232004  TIP3      1969            0.0000000000
     28158      2161  TIP3      H1              3.5803603245       15.9477375802       32.7193154552  TIP3      1969            0.0000000000
     28159      2161  TIP3      H2              3.5506370205       17.1576108774       33.5974476033  TIP3      1969            0.0000000000
     28160      2162  TIP3      OH2             4.5964976183       12.1388908983       23.0242932488  TIP3      1970            0.0000000000
     28161      2162  TIP3      H1              3.8644945237       12.5894332676       23.4780287695  TIP3      1970            0.0000000000
     28162      2162  TIP3      H2              5.0750786730       12.8765989717       22.6040649034  TIP3      1970            0.0000000000
     28163      2163  TIP3      OH2            12.4087755730        4.8577670167       33.2344793227  TIP3      1971            0.0000000000
     28164      2163  TIP3      H1             13.1181845709        4.9146363042       33.8845688319  TIP3      1971            0.0000000000
     28165      2163  TIP3      H2             12.0223092087        3.9811268273       33.4364053693  TIP3      1971            0.0000000000
     28166      2164  TIP3      OH2            13.2154882854        4.4269749118       24.2709733303  TIP3      1972            0.0000000000
     28167      2164  TIP3      H1             13.3759496601        4.9745612587       23.4775730827  TIP3      1972            0.0000000000
     28168      2164  TIP3      H2             13.7291702739        4.8782158394       24.9613653085  TIP3      1972            0.0000000000
     28169      2165  TIP3      OH2            10.8034530278       16.5378557489       22.9887017586  TIP3      1973            0.0000000000
     28170      2165  TIP3      H1             10.0527578923       17.0963345590       23.2712926574  TIP3      1973            0.0000000000
     28171      2165  TIP3      H2             11.3832499517       17.2193854415       22.6080357119  TIP3      1973            0.0000000000
     28172      2166  TIP3      OH2            10.3795029357        6.2001389402       25.0960428903  TIP3      1974            0.0000000000
     28173      2166  TIP3      H1             11.1791341055        6.7458291173       25.1945338354  TIP3      1974            0.0000000000
     28174      2166  TIP3      H2             10.1133402357        6.0097280769       26.0185331525  TIP3      1974            0.0000000000
     28175      2167  TIP3      OH2            10.9195180322        7.1937737015       34.3430083610  TIP3      1975            0.0000000000
     28176      2167  TIP3      H1             11.0051522186        7.7632930640       35.1331325846  TIP3      1975            0.0000000000
     28177      2167  TIP3      H2             11.5978296790        6.5167259824       34.4450696253  TIP3      1975            0.0000000000
     28178      2168  TIP3      OH2            11.2747148139        3.2544594920       26.0848895048  TIP3      1976            0.0000000000
     28179      2168  TIP3      H1             10.8905890924        3.9080307980       26.6835140898  TIP3      1976            0.0000000000
     28180      2168  TIP3      H2             11.9264755367        3.8053693797       25.6022442152  TIP3      1976            0.0000000000
     28181      2169  TIP3      OH2            17.1186395091        5.0582129810       35.1873548980  TIP3      1977            0.0000000000
     28182      2169  TIP3      H1             16.1916766184        5.3802921515       35.0595709649  TIP3      1977            0.0000000000
     28183      2169  TIP3      H2             17.4164627250        5.0620536881       34.2623261076  TIP3      1977            0.0000000000
     28184      2170  TIP3      OH2            15.7224983233        8.8652103064       29.2339166595  TIP3      1978            0.0000000000
     28185      2170  TIP3      H1             14.9136174433        8.4176361271       28.9238791266  TIP3      1978            0.0000000000
     28186      2170  TIP3      H2             16.2084381353        8.1622286159       29.7180893750  TIP3      1978            0.0000000000
     28187      2171  TIP3      OH2            16.7886654364       18.1191806807       30.8664631156  TIP3      1979            0.0000000000
     28188      2171  TIP3      H1             16.6966661281       18.8035534792       30.1740769485  TIP3      1979            0.0000000000
     28189      2171  TIP3      H2             17.7523832958       18.1728433265       31.0450703836  TIP3      1979            0.0000000000
     28190      2172  TIP3      OH2             4.2816680357        2.2410143566       29.6648518015  TIP3      1980            0.0000000000
     28191      2172  TIP3      H1              4.0801794152        2.2568780373       28.7013151313  TIP3      1980            0.0000000000
     28192      2172  TIP3      H2              3.8641635883        1.3927092889       29.9229962534  TIP3      1980            0.0000000000
     28193      2173  TIP3      OH2             3.2223511595       16.1521351705       25.7833185310  TIP3      1981            0.0000000000
     28194      2173  TIP3      H1              2.3804581702       16.6310004809       25.7889591644  TIP3      1981            0.0000000000
     28195      2173  TIP3      H2              3.7248527854       16.6415044965       25.1222366726  TIP3      1981            0.0000000000
     28196      2174  TIP3      OH2             2.4440088628       18.8162666415       37.1043680210  TIP3      1982            0.0000000000
     28197      2174  TIP3      H1              3.0417642932       18.6112239367       37.8525125446  TIP3      1982            0.0000000000
     28198      2174  TIP3      H2              2.0299234460       17.9534494634       36.9300195121  TIP3      1982            0.0000000000
     28199      2175  TIP3      OH2             7.1233939912       17.7061187843       38.7162463812  TIP3      1983            0.0000000000
     28200      2175  TIP3      H1              7.8952442491       17.2296935650       39.0439160369  TIP3      1983            0.0000000000
     28201      2175  TIP3      H2              7.1089988169       17.4456237749       37.7743039788  TIP3      1983            0.0000000000
     28202      2176  TIP3      OH2            13.6188545784       16.1064651413       37.4547228685  TIP3      1984            0.0000000000
     28203      2176  TIP3      H1             13.3411160058       15.1973284961       37.7086454645  TIP3      1984            0.0000000000
     28204      2176  TIP3      H2             14.3983234116       16.2302368967       38.0268934849  TIP3      1984            0.0000000000
     28205      2177  TIP3      OH2            15.8330017022       17.0998597011       20.3838266117  TIP3      1985            0.0000000000
     28206      2177  TIP3      H1             16.1467301704       16.2579328426       20.7514634160  TIP3      1985            0.0000000000
     28207      2177  TIP3      H2             16.5791865555       17.2547749031       19.7703419573  TIP3      1985            0.0000000000
     28208      2178  TIP3      OH2             2.3534877208       12.5697566023       38.0933866884  TIP3      1986            0.0000000000
     28209      2178  TIP3      H1              2.5328237946       11.6673981277       37.7662219586  TIP3      1986            0.0000000000
     28210      2178  TIP3      H2              1.6232095491       12.8443851928       37.5117475641  TIP3      1986            0.0000000000
     28211      2179  TIP3      OH2             9.0369498011       12.5682931102       37.4671436349  TIP3      1987            0.0000000000
     28212      2179  TIP3      H1              8.7486096327       12.8763269840       36.5934025017  TIP3      1987            0.0000000000
     28213      2179  TIP3      H2              9.1889245782       11.5996224486       37.3615224038  TIP3      1987            0.0000000000
     28214      2180  TIP3      OH2            14.7692331971       12.4414465896       34.7629969838  TIP3      1988            0.0000000000
     28215      2180  TIP3      H1             15.5529920994       13.0213890520       34.8390560464  TIP3      1988            0.0000000000
     28216      2180  TIP3      H2             14.0674661668       13.0770798188       34.9463686721  TIP3      1988            0.0000000000
     28217      2181  TIP3      OH2             3.2691770641        9.8082522575       37.4796623898  TIP3      1989            0.0000000000
     28218      2181  TIP3      H1              3.6852768890        8.9452415710       37.3889830805  TIP3      1989            0.0000000000
     28219      2181  TIP3      H2              3.0415359209        9.8249145067       38.4289689010  TIP3      1989            0.0000000000
     28220      2182  TIP3      OH2             7.1741967837        8.7590012321       34.8354913333  TIP3      1990            0.0000000000
     28221      2182  TIP3      H1              6.5764400590        9.4780899422       35.0955563211  TIP3      1990            0.0000000000
     28222      2182  TIP3      H2              7.5655231458        9.1248036635       34.0239844765  TIP3      1990            0.0000000000
     28223      2183  TIP3      OH2            11.8951740576       11.0794141387       38.1619195272  TIP3      1991            0.0000000000
     28224      2183  TIP3      H1             12.8421641908       11.3004402841       37.9691569588  TIP3      1991            0.0000000000
     28225      2183  TIP3      H2             12.0019269168       10.4510535033       38.8713797389  TIP3      1991            0.0000000000
     28226      2184  TIP3      OH2             7.5828849327        6.1455941155       35.8841618662  TIP3      1992            0.0000000000
     28227      2184  TIP3      H1              7.6948931942        5.4235489469       35.2391441565  TIP3      1992            0.0000000000
     28228      2184  TIP3      H2              7.5362163270        6.9507526915       35.3327710592  TIP3      1992            0.0000000000
     28229      2185  TIP3      OH2             7.9804382501        4.5136718866       33.4433445704  TIP3      1993            0.0000000000
     28230      2185  TIP3      H1              8.4916836490        4.9807140728       32.7401726704  TIP3      1993            0.0000000000
     28231      2185  TIP3      H2              7.0890876564        4.4336233516       33.0329023747  TIP3      1993            0.0000000000
     28232      2186  TIP3      OH2             9.5174414871        9.9966627295       33.6835445220  TIP3      1994            0.0000000000
     28233      2186  TIP3      H1             10.2801550408        9.8378746745       33.1182004945  TIP3      1994            0.0000000000
     28234      2186  TIP3      H2              9.1570864960       10.8346635945       33.3495070468  TIP3      1994            0.0000000000
     28235      2187  TIP3      OH2            13.9157327018        7.7363194931       38.6662096177  TIP3      1995            0.0000000000
     28236      2187  TIP3      H1             14.1571125524        6.8076874413       38.5624897856  TIP3      1995            0.0000000000
     28237      2187  TIP3      H2             14.7771199174        8.1959156216       38.6548179066  TIP3      1995            0.0000000000
     28238      2188  TIP3      OH2            15.3347801587       10.3054944256       36.5581234569  TIP3      1996            0.0000000000
     28239      2188  TIP3      H1             15.0124268855       11.2073368439       36.3040181196  TIP3      1996            0.0000000000
     28240      2188  TIP3      H2             16.2833722766       10.5240569208       36.6145181877  TIP3      1996            0.0000000000
     28241      2189  TIP3      OH2             6.0486927470        7.3743199860       37.8395321949  TIP3      1997            0.0000000000
     28242      2189  TIP3      H1              5.2679589514        6.8183846826       37.6334804946  TIP3      1997            0.0000000000
     28243      2189  TIP3      H2              6.6874770089        7.0253470963       37.1851456641  TIP3      1997            0.0000000000
     28244      2190  TIP3      OH2             8.7599161236        1.9419673086       33.8590076629  TIP3      1998            0.0000000000
     28245      2190  TIP3      H1              8.6023162101        2.9092438551       33.7428546875  TIP3      1998            0.0000000000
     28246      2190  TIP3      H2              8.0181187429        1.5870969076       33.3384445390  TIP3      1998            0.0000000000
     28247      2191  TIP3      OH2            10.0497849438        6.2785525687       37.4716218006  TIP3      1999            0.0000000000
     28248      2191  TIP3      H1              9.7262113296        6.0640536415       38.3653461787  TIP3      1999            0.0000000000
     28249      2191  TIP3      H2              9.2673323083        6.1075628570       36.9148484700  TIP3      1999            0.0000000000
     28250      2192  TIP3      OH2            12.7582490240        5.3921218325       36.5106824038  TIP3      2000            0.0000000000
     28251      2192  TIP3      H1             11.8049185018        5.4975508751       36.6673859839  TIP3      2000            0.0000000000
     28252      2192  TIP3      H2             13.0319261155        4.7849064785       37.2228762898  TIP3      2000            0.0000000000
     28253      2193  TIP3      OH2            14.3233303097        4.0520881805       38.4570779461  TIP3      2001            0.0000000000
     28254      2193  TIP3      H1             14.2933698283        3.0752652370       38.4865386486  TIP3      2001            0.0000000000
     28255      2193  TIP3      H2             14.0757022925        4.3418631491       39.3666792874  TIP3      2001            0.0000000000
     28256      2194  TIP3      OH2             4.1277226562        5.3199724057       37.5583631887  TIP3      2002            0.0000000000
     28257      2194  TIP3      H1              4.3752132889        4.5805934699       36.9730802921  TIP3      2002            0.0000000000
     28258      2194  TIP3      H2              4.0466549807        4.8769351400       38.4302575929  TIP3      2002            0.0000000000
     28259      2195  TIP3      OH2             8.9833684599        1.3317100967       36.5365753838  TIP3      2003            0.0000000000
     28260      2195  TIP3      H1              9.6669784770        0.6290654415       36.5132167017  TIP3      2003            0.0000000000
     28261      2195  TIP3      H2              8.8772617902        1.5041395328       35.5796069274  TIP3      2003            0.0000000000
     28262      2196  TIP3      OH2             9.3328864879        2.9469494217       38.6296948559  TIP3      2004            0.0000000000
     28263      2196  TIP3      H1              9.1760591811        2.4475219069       37.7916809630  TIP3      2004            0.0000000000
     28264      2196  TIP3      H2              8.7551673851        3.7262565267       38.5244529917  TIP3      2004            0.0000000000
     28265      2197  TIP3      OH2             1.1521455380       19.8450186921       26.2579967898  TIP3      2005            0.0000000000
     28266      2197  TIP3      H1              0.4425711739       19.3595962695       25.7763777066  TIP3      2005            0.0000000000
     28267      2197  TIP3      H2              1.4243012869       19.1844145189       26.9225063235  TIP3      2005            0.0000000000
     28268      2198  TIP3      OH2             1.9712462015       17.9592789699       28.1358681627  TIP3      2006            0.0000000000
     28269      2198  TIP3      H1              1.6185353057       17.0812503492       28.3343585821  TIP3      2006            0.0000000000
     28270      2198  TIP3      H2              2.1953412023       18.2932465506       29.0203457935  TIP3      2006            0.0000000000
     28271      2199  TIP3      OH2            19.5106878834       18.7502582315       31.0722868778  TIP3      2007            0.0000000000
     28272      2199  TIP3      H1             19.5346154033       18.9255741654       32.0288159941  TIP3      2007            0.0000000000
     28273      2199  TIP3      H2             20.2104151291       19.3375614948       30.7637069852  TIP3      2007            0.0000000000
     28274      2200  TIP3      OH2            19.0831718541       18.3580789384       34.0120140628  TIP3      2008            0.0000000000
     28275      2200  TIP3      H1             18.6111950070       17.5868710855       33.6329464377  TIP3      2008            0.0000000000
     28276      2200  TIP3      H2             19.5786834804       17.9113727181       34.7191914267  TIP3      2008            0.0000000000
     28277      2201  TIP3      OH2            17.5512847907       14.0636460238       38.6850085944  TIP3      2009            0.0000000000
     28278      2201  TIP3      H1             16.6292733627       14.0280303700       39.0229579216  TIP3      2009            0.0000000000
     28279      2201  TIP3      H2             17.8855051104       14.8786232446       39.1112746700  TIP3      2009            0.0000000000
     28280      2202  TIP3      OH2            18.7905109350       12.3888268318       24.1359269754  TIP3      2010            0.0000000000
     28281      2202  TIP3      H1             19.6657658868       12.7844441400       24.2793781665  TIP3      2010            0.0000000000
     28282      2202  TIP3      H2             18.8179532976       11.6480823597       24.7798739319  TIP3      2010            0.0000000000
     28283      2203  TIP3      OH2            19.2223518194       10.4998618475       25.9935338925  TIP3      2011            0.0000000000
     28284      2203  TIP3      H1             18.4737061917        9.9858172132       26.3633656740  TIP3      2011            0.0000000000
     28285      2203  TIP3      H2             19.8100169573       10.6204985931       26.7599454144  TIP3      2011            0.0000000000
     28286      2204  TIP3      OH2            18.9628043993       13.1812543527       30.9816828087  TIP3      2012            0.0000000000
     28287      2204  TIP3      H1             19.7813372676       12.8074577667       30.6091707385  TIP3      2012            0.0000000000
     28288      2204  TIP3      H2             19.1055531768       14.1359829994       30.8144922310  TIP3      2012            0.0000000000
     28289      2205  TIP3      OH2            17.5166289506       16.0784117906       33.2592943778  TIP3      2013            0.0000000000
     28290      2205  TIP3      H1             16.8247511355       16.4221660967       33.8473719177  TIP3      2013            0.0000000000
     28291      2205  TIP3      H2             16.9688386779       15.6778114931       32.5497831806  TIP3      2013            0.0000000000
     28292      2206  TIP3      OH2            19.5001474623       10.3279166775       22.3349005641  TIP3      2014            0.0000000000
     28293      2206  TIP3      H1             18.9318103451       10.7086072874       21.6693155753  TIP3      2014            0.0000000000
     28294      2206  TIP3      H2             19.4320124051       10.9849621649       23.0432826030  TIP3      2014            0.0000000000
     28295      2207  TIP3      OH2            17.0169979234        8.9458776401       26.5343931171  TIP3      2015            0.0000000000
     28296      2207  TIP3      H1             16.8437118014        7.9924263890       26.5134743714  TIP3      2015            0.0000000000
     28297      2207  TIP3      H2             16.6891942659        9.1800424918       27.4185878961  TIP3      2015            0.0000000000
     28298      2208  TIP3      OH2             2.0286915260       11.0323195405       30.6154987582  TIP3      2016            0.0000000000
     28299      2208  TIP3      H1              2.2140782070       10.9612875028       29.6557666695  TIP3      2016            0.0000000000
     28300      2208  TIP3      H2              2.9218126246       10.8749521204       30.9843886101  TIP3      2016            0.0000000000
     28301      2209  TIP3      OH2            17.8815626653       10.9347352857       36.2750600938  TIP3      2017            0.0000000000
     28302      2209  TIP3      H1             18.4844106708       10.1726043164       36.3987518262  TIP3      2017            0.0000000000
     28303      2209  TIP3      H2             18.4742618314       11.7093207456       36.2653878381  TIP3      2017            0.0000000000
     28304      2210  TIP3      OH2            19.3762289331        8.8192153472       36.9054409659  TIP3      2018            0.0000000000
     28305      2210  TIP3      H1             18.4916231384        8.4213492570       36.7467726007  TIP3      2018            0.0000000000
     28306      2210  TIP3      H2             19.9497414365        8.0370293685       36.8309383560  TIP3      2018            0.0000000000
     28307      2211  TIP3      OH2            16.7316912930        6.5243577194       25.1484403474  TIP3      2019            0.0000000000
     28308      2211  TIP3      H1             16.9963208655        5.5846785541       25.1278160443  TIP3      2019            0.0000000000
     28309      2211  TIP3      H2             17.4053296672        6.9540878835       24.6009752364  TIP3      2019            0.0000000000
     28310      2212  TIP3      OH2            17.3295500482        7.0836714905       30.4669671538  TIP3      2020            0.0000000000
     28311      2212  TIP3      H1             18.2892400096        7.3175034990       30.4495695601  TIP3      2020            0.0000000000
     28312      2212  TIP3      H2             17.1393567095        7.2252073536       31.4068931224  TIP3      2020            0.0000000000
     28313      2213  TIP3      OH2            17.3962511164        7.8046281458       33.2445163138  TIP3      2021            0.0000000000
     28314      2213  TIP3      H1             16.5157889436        8.0971565623       33.5727008770  TIP3      2021            0.0000000000
     28315      2213  TIP3      H2             17.8272996156        8.6667809695       33.0278674094  TIP3      2021            0.0000000000
     28316      2214  TIP3      OH2             1.6474204591        6.3328767910       36.7617518196  TIP3      2022            0.0000000000
     28317      2214  TIP3      H1              2.5834233186        6.1377939379       36.9690934509  TIP3      2022            0.0000000000
     28318      2214  TIP3      H2              1.1922952917        5.5190774491       37.0709747345  TIP3      2022            0.0000000000
     28319      2215  TIP3      OH2            19.8177956649        1.8969940101       38.6187488642  TIP3      2023            0.0000000000
     28320      2215  TIP3      H1             19.9757245894        1.1909212706       37.9631325485  TIP3      2023            0.0000000000
     28321      2215  TIP3      H2             19.7360005333        2.6845335309       38.0422444368  TIP3      2023            0.0000000000
     28322      2216  TIP3      OH2            17.3821576895        3.7998154317       25.0577187609  TIP3      2024            0.0000000000
     28323      2216  TIP3      H1             17.5768475021        3.3733077213       25.9257101671  TIP3      2024            0.0000000000
     28324      2216  TIP3      H2             16.7363145602        3.1945145695       24.6335592068  TIP3      2024            0.0000000000
     28325      2217  TIP3      OH2             2.8449860363        4.6361132088       29.6214348969  TIP3      2025            0.0000000000
     28326      2217  TIP3      H1              3.3037096923        3.8125376649       29.8856757394  TIP3      2025            0.0000000000
     28327      2217  TIP3      H2              3.3895023327        5.3273204203       30.0258664470  TIP3      2025            0.0000000000
     28328      2218  TIP3      OH2             1.1328408826        7.6296002611       30.6703181327  TIP3      2026            0.0000000000
     28329      2218  TIP3      H1              1.6915035163        7.3875676124       29.9048572128  TIP3      2026            0.0000000000
     28330      2218  TIP3      H2              1.5880863479        8.4408606029       30.9386659649  TIP3      2026            0.0000000000
     28331      2219  TIP3      OH2            19.1892134921        3.9400735839       36.9673564470  TIP3      2027            0.0000000000
     28332      2219  TIP3      H1             18.2540319708        4.2382816424       36.9069027051  TIP3      2027            0.0000000000
     28333      2219  TIP3      H2             19.2236418514        3.4271920633       36.1424866534  TIP3      2027            0.0000000000
     28334      2220  TIP3      OH2             1.5017998977        4.0012945295       24.7694541929  TIP3      2028            0.0000000000
     28335      2220  TIP3      H1              0.5431405749        4.0469080945       24.6054705484  TIP3      2028            0.0000000000
     28336      2220  TIP3      H2              1.9193192013        4.3221958734       23.9735322331  TIP3      2028            0.0000000000
     28337      2221  TIP3      OH2            16.2278290084       18.8388823939       26.6780223116  TIP3      2029            0.0000000000
     28338      2221  TIP3      H1             16.9061960013       18.5297997400       26.0624308437  TIP3      2029            0.0000000000
     28339      2221  TIP3      H2             16.7472992271       19.3466673871       27.3215464461  TIP3      2029            0.0000000000
     28340      2222  TIP3      OH2             1.4456410913        2.5524377204       33.0387812410  TIP3      2030            0.0000000000
     28341      2222  TIP3      H1              0.7766016327        2.3572154656       33.7178183283  TIP3      2030            0.0000000000
     28342      2222  TIP3      H2              0.9878516408        3.2253419338       32.4955672018  TIP3      2030            0.0000000000
     28343      2223  TIP3      OH2             3.6802085923       15.7661023139       37.2099731791  TIP3      2031            0.0000000000
     28344      2223  TIP3      H1              2.8367603863       15.9679674905       36.7751274602  TIP3      2031            0.0000000000
     28345      2223  TIP3      H2              3.4108548316       15.6948595917       38.1329765272  TIP3      2031            0.0000000000
     28346      2224  TIP3      OH2             6.5811537087       16.7506060962       33.4799760068  TIP3      2032            0.0000000000
     28347      2224  TIP3      H1              6.2423146270       17.6130606641       33.2029427900  TIP3      2032            0.0000000000
     28348      2224  TIP3      H2              7.5068553028       16.8411085424       33.1716979813  TIP3      2032            0.0000000000
     28349      2225  TIP3      OH2            10.8997340862       18.1678006140       36.3874035304  TIP3      2033            0.0000000000
     28350      2225  TIP3      H1             11.0424833284       17.8265945738       37.3036951538  TIP3      2033            0.0000000000
     28351      2225  TIP3      H2             11.7985063032       18.4761523194       36.1488878177  TIP3      2033            0.0000000000
     28352      2226  TIP3      OH2            13.1923340370       19.4443247754       35.6901474662  TIP3      2034            0.0000000000
     28353      2226  TIP3      H1             13.9248585245       18.8564569847       35.4511126587  TIP3      2034            0.0000000000
     28354      2226  TIP3      H2             13.5696053557       19.8770231100       36.4856823046  TIP3      2034            0.0000000000
     28355      2227  TIP3      OH2            18.2043105889        2.0560785212       34.7972127106  TIP3      2035            0.0000000000
     28356      2227  TIP3      H1             17.3779135608        2.3572412185       34.3802174207  TIP3      2035            0.0000000000
     28357      2227  TIP3      H2             18.3784358570        1.2404166314       34.2709904351  TIP3      2035            0.0000000000
     28358      2228  TIP3      OH2             4.0057097532       20.0018456333       33.4784252188  TIP3      2036            0.0000000000
     28359      2228  TIP3      H1              3.2709857177       20.4902897046       33.0765719463  TIP3      2036            0.0000000000
     28360      2228  TIP3      H2              3.6871414213       19.7960395230       34.3688597839  TIP3      2036            0.0000000000
     28361      2229  TIP3      OH2             6.4759281800       19.5700897100       32.5466526364  TIP3      2037            0.0000000000
     28362      2229  TIP3      H1              5.5834280297       19.7134398841       32.9415439349  TIP3      2037            0.0000000000
     28363      2229  TIP3      H2              6.4181725065       20.1583712382       31.7702515742  TIP3      2037            0.0000000000
     28364      2230  TIP3      OH2            11.1808407836       19.4794950861       31.7215511933  TIP3      2038            0.0000000000
     28365      2230  TIP3      H1             10.7199646937       20.0349293121       31.0704723418  TIP3      2038            0.0000000000
     28366      2230  TIP3      H2             11.3180256895       20.1171345408       32.4559927214  TIP3      2038            0.0000000000
     28367      2231  TIP3      OH2            13.4771576553       18.2986169299       32.7312731995  TIP3      2039            0.0000000000
     28368      2231  TIP3      H1             12.6136693145       18.5662690672       32.3775483935  TIP3      2039            0.0000000000
     28369      2231  TIP3      H2             13.9510012993       19.1436681330       32.6427819623  TIP3      2039            0.0000000000
     28370      2232  TIP3      OH2            16.0547204295       19.8629389329       32.9661050615  TIP3      2040            0.0000000000
     28371      2232  TIP3      H1             15.9875367116       20.8204215857       32.7345939990  TIP3      2040            0.0000000000
     28372      2232  TIP3      H2             16.2736055566       19.4910698651       32.0897470661  TIP3      2040            0.0000000000
     28373      2233  TIP3      OH2             3.4592938042       18.6415581773       30.4162128748  TIP3      2041            0.0000000000
     28374      2233  TIP3      H1              3.3874173142       18.1800075114       31.2784926851  TIP3      2041            0.0000000000
     28375      2233  TIP3      H2              4.2742853268       18.2667552936       30.0239869026  TIP3      2041            0.0000000000
     28376      2234  TIP3      OH2             5.5308299949       17.3531018771       29.0858122805  TIP3      2042            0.0000000000
     28377      2234  TIP3      H1              5.3737973341       16.4149721599       29.2988397565  TIP3      2042            0.0000000000
     28378      2234  TIP3      H2              6.3987891230       17.5014838592       29.5177001345  TIP3      2042            0.0000000000
     28379      2235  TIP3      OH2             8.1407023635       17.8391576061       29.9539409323  TIP3      2043            0.0000000000
     28380      2235  TIP3      H1              8.2989527296       16.9185113540       29.6744402623  TIP3      2043            0.0000000000
     28381      2235  TIP3      H2              8.1874584094       17.7724694477       30.9168274910  TIP3      2043            0.0000000000
     28382      2236  TIP3      OH2            11.6049287184        3.4978612140       29.0816199368  TIP3      2044            0.0000000000
     28383      2236  TIP3      H1             10.9205300268        2.8581205110       29.3394427557  TIP3      2044            0.0000000000
     28384      2236  TIP3      H2             12.1501175228        2.9612328177       28.4947952408  TIP3      2044            0.0000000000
     28385      2237  TIP3      OH2            16.7347257276        1.5397516369       29.1542882790  TIP3      2045            0.0000000000
     28386      2237  TIP3      H1             17.3465140919        2.1311719087       28.6512530618  TIP3      2045            0.0000000000
     28387      2237  TIP3      H2             15.8527445765        1.8918501952       28.9139577836  TIP3      2045            0.0000000000
     28388      2238  TIP3      OH2            18.3899305913        2.7945783505       27.3995466034  TIP3      2046            0.0000000000
     28389      2238  TIP3      H1             19.0989334112        2.2104768135       27.0340819618  TIP3      2046            0.0000000000
     28390      2238  TIP3      H2             18.9062407914        3.6107824149       27.5832189494  TIP3      2046            0.0000000000
     28391      2239  TIP3      OH2             3.9500278924        2.1272020657       26.9398513173  TIP3      2047            0.0000000000
     28392      2239  TIP3      H1              3.1672961206        1.9121344335       26.3993382382  TIP3      2047            0.0000000000
     28393      2239  TIP3      H2              4.4308270067        1.2774813286       26.8683606170  TIP3      2047            0.0000000000
     28394      2240  TIP3      OH2             2.8004853153        1.9210479447       22.6873530957  TIP3      2048            0.0000000000
     28395      2240  TIP3      H1              3.1920096661        2.5762325954       22.0902784448  TIP3      2048            0.0000000000
     28396      2240  TIP3      H2              2.1327996706        2.4038575172       23.1862937316  TIP3      2048            0.0000000000
     28397      2241  TIP3      OH2             8.4336334280        2.0419553870       26.7273453894  TIP3      2049            0.0000000000
     28398      2241  TIP3      H1              9.3389697502        2.3959784328       26.6399412410  TIP3      2049            0.0000000000
     28399      2241  TIP3      H2              8.4112719262        1.8121221373       27.6559824806  TIP3      2049            0.0000000000
     28400      2242  TIP3      OH2            14.1371827330        2.0562813750       28.3534514659  TIP3      2050            0.0000000000
     28401      2242  TIP3      H1             14.1012205027        2.1663781818       27.3938305054  TIP3      2050            0.0000000000
     28402      2242  TIP3      H2             13.7778422866        1.1425376149       28.4657352819  TIP3      2050            0.0000000000
     28403      2243  TIP3      OH2            15.4164098119        2.0813839902       23.9921533347  TIP3      2051            0.0000000000
     28404      2243  TIP3      H1             14.6977163623        2.7169493645       23.8448159795  TIP3      2051            0.0000000000
     28405      2243  TIP3      H2             14.9567391046        1.2513224326       24.2702550542  TIP3      2051            0.0000000000
     28406      2244  TIP3      OH2             2.6038252573       17.8210337844       23.6605296736  TIP3      2052            0.0000000000
     28407      2244  TIP3      H1              1.9880885500       17.8417634193       22.9202954613  TIP3      2052            0.0000000000
     28408      2244  TIP3      H2              2.6726702367       18.7665111534       23.8477113980  TIP3      2052            0.0000000000
     28409      2245  TIP3      OH2            11.5901151656       18.8871793263       22.0236436886  TIP3      2053            0.0000000000
     28410      2245  TIP3      H1             12.3887339669       19.4165597145       21.8164457875  TIP3      2053            0.0000000000
     28411      2245  TIP3      H2             11.2122678095       18.7651867128       21.1505633424  TIP3      2053            0.0000000000
     28412      2246  TIP3      OH2            18.2601791144       18.6399818725       24.6794052655  TIP3      2054            0.0000000000
     28413      2246  TIP3      H1             18.0090302962       17.8460012661       24.1447777640  TIP3      2054            0.0000000000
     28414      2246  TIP3      H2             18.1319396841       19.3737996465       24.0672304681  TIP3      2054            0.0000000000
     28415      2247  TIP3      OH2             3.8518877000        2.6469158218       36.3839906275  TIP3      2055            0.0000000000
     28416      2247  TIP3      H1              3.4707669703        1.8527745731       36.8061808518  TIP3      2055            0.0000000000
     28417      2247  TIP3      H2              4.7668314429        2.6125193987       36.7492508897  TIP3      2055            0.0000000000
     28418      2248  TIP3      OH2             5.8561741123        2.0417006930       38.0262406514  TIP3      2056            0.0000000000
     28419      2248  TIP3      H1              6.7390560942        1.6937606268       37.7836883185  TIP3      2056            0.0000000000
     28420      2248  TIP3      H2              5.4788328335        1.2384869086       38.4370639477  TIP3      2056            0.0000000000
     28421      2249  TIP3      OH2            14.2638607244        1.3314533166       38.1750176510  TIP3      2057            0.0000000000
     28422      2249  TIP3      H1             14.3601719691        0.8492891541       39.0180299967  TIP3      2057            0.0000000000
     28423      2249  TIP3      H2             15.1783488172        1.2979236836       37.8255360971  TIP3      2057            0.0000000000
     28424      2250  TIP3      OH2            17.4742790529       17.3797555828       36.8293199646  TIP3      2058            0.0000000000
     28425      2250  TIP3      H1             16.6682454016       17.2163968743       36.2883368053  TIP3      2058            0.0000000000
     28426      2250  TIP3      H2             17.3577580934       18.3304581278       37.0219973222  TIP3      2058            0.0000000000
     28427      2251  TIP3      OH2            31.8919289658       11.2377943607       26.8202728592  TIP3      2059            0.0000000000
     28428      2251  TIP3      H1             31.9246609507       12.2168614791       26.7612246191  TIP3      2059            0.0000000000
     28429      2251  TIP3      H2             31.1942620152       11.0147228139       26.1835680613  TIP3      2059            0.0000000000
     28430      2252  TIP3      OH2            30.7684442270       10.5084524275       30.2904642493  TIP3      2060            0.0000000000
     28431      2252  TIP3      H1             30.7519834819        9.8581561408       31.0046363682  TIP3      2060            0.0000000000
     28432      2252  TIP3      H2             30.4473504822       10.0016825074       29.5275346708  TIP3      2060            0.0000000000
     28433      2253  TIP3      OH2            23.1303484322       10.1767808150       31.8325794506  TIP3      2061            0.0000000000
     28434      2253  TIP3      H1             23.2059574928        9.5003251936       32.5398039636  TIP3      2061            0.0000000000
     28435      2253  TIP3      H2             23.8717966104       10.7545818624       32.0623859010  TIP3      2061            0.0000000000
     28436      2254  TIP3      OH2            34.4388762940       13.4465757272       28.5636706701  TIP3      2062            0.0000000000
     28437      2254  TIP3      H1             34.0611374924       12.7229692601       29.0757950878  TIP3      2062            0.0000000000
     28438      2254  TIP3      H2             34.4846944231       14.1493950037       29.2362970421  TIP3      2062            0.0000000000
     28439      2255  TIP3      OH2            24.0514738102       14.6276649868       30.3526626664  TIP3      2063            0.0000000000
     28440      2255  TIP3      H1             23.7370589516       13.7632463502       30.0273932193  TIP3      2063            0.0000000000
     28441      2255  TIP3      H2             25.0061911482       14.4413966422       30.3972802472  TIP3      2063            0.0000000000
     28442      2256  TIP3      OH2            20.6767705581        8.1776740751       25.8514725002  TIP3      2064            0.0000000000
     28443      2256  TIP3      H1             20.2885223465        9.0719883881       25.7606934800  TIP3      2064            0.0000000000
     28444      2256  TIP3      H2             20.1301179798        7.6717740671       25.2561332430  TIP3      2064            0.0000000000
     28445      2257  TIP3      OH2            21.4045329205       10.4155771813       27.9682570795  TIP3      2065            0.0000000000
     28446      2257  TIP3      H1             21.6698330048        9.5909994862       28.4139273670  TIP3      2065            0.0000000000
     28447      2257  TIP3      H2             22.0914738559       10.5107070035       27.2889171821  TIP3      2065            0.0000000000
     28448      2258  TIP3      OH2            31.5864370299       18.6073865168       28.7994008851  TIP3      2066            0.0000000000
     28449      2258  TIP3      H1             32.2281320160       17.9065563093       28.5304070032  TIP3      2066            0.0000000000
     28450      2258  TIP3      H2             31.3564076579       18.2851046654       29.6759004320  TIP3      2066            0.0000000000
     28451      2259  TIP3      OH2            29.1502918556       12.9101281366       30.7525810154  TIP3      2067            0.0000000000
     28452      2259  TIP3      H1             29.4852919914       12.2763726304       30.1003550354  TIP3      2067            0.0000000000
     28453      2259  TIP3      H2             29.9533440486       13.0639557359       31.2785331046  TIP3      2067            0.0000000000
     28454      2260  TIP3      OH2            32.3201943537        7.3802826346       31.0655363113  TIP3      2068            0.0000000000
     28455      2260  TIP3      H1             32.4852703873        6.4200914504       31.0542035091  TIP3      2068            0.0000000000
     28456      2260  TIP3      H2             32.2215441660        7.5272484772       30.1050403317  TIP3      2068            0.0000000000
     28457      2261  TIP3      OH2            25.4293993464        5.4567075037       28.2911549496  TIP3      2069            0.0000000000
     28458      2261  TIP3      H1             25.5270108999        6.2954190302       27.8038554682  TIP3      2069            0.0000000000
     28459      2261  TIP3      H2             25.0221508758        4.8985968304       27.5904675082  TIP3      2069            0.0000000000
     28460      2262  TIP3      OH2            33.1820302061        5.5855329989       26.6799113675  TIP3      2070            0.0000000000
     28461      2262  TIP3      H1             33.8383123372        5.2301070006       27.3281897876  TIP3      2070            0.0000000000
     28462      2262  TIP3      H2             33.7621601339        6.1109135100       26.1197473004  TIP3      2070            0.0000000000
     28463      2263  TIP3      OH2            22.0629922357        7.8839526330       29.0194895364  TIP3      2071            0.0000000000
     28464      2263  TIP3      H1             22.7177040813        7.3213700008       29.4777589824  TIP3      2071            0.0000000000
     28465      2263  TIP3      H2             22.1624270395        7.5688136832       28.1062436335  TIP3      2071            0.0000000000
     28466      2264  TIP3      OH2            27.2038858602        9.4203825001       28.3518240440  TIP3      2072            0.0000000000
     28467      2264  TIP3      H1             27.8810995960        8.8444757601       28.7523343159  TIP3      2072            0.0000000000
     28468      2264  TIP3      H2             26.6918499078        8.7653500676       27.8363321231  TIP3      2072            0.0000000000
     28469      2265  TIP3      OH2            24.3301367169        4.3623299128       32.3325140346  TIP3      2073            0.0000000000
     28470      2265  TIP3      H1             24.0517101426        4.9306508476       31.5839699109  TIP3      2073            0.0000000000
     28471      2265  TIP3      H2             23.6504922406        4.5944607590       33.0114072892  TIP3      2073            0.0000000000
     28472      2266  TIP3      OH2            31.6598345249       13.8578259157       25.8771222393  TIP3      2074            0.0000000000
     28473      2266  TIP3      H1             31.3049091699       13.5516511843       25.0460009203  TIP3      2074            0.0000000000
     28474      2266  TIP3      H2             31.2960841736       14.7655600500       25.9630716463  TIP3      2074            0.0000000000
     28475      2267  TIP3      OH2            26.8520545469       12.0108915444       32.5756731136  TIP3      2075            0.0000000000
     28476      2267  TIP3      H1             26.1412780823       12.6516034552       32.7845329708  TIP3      2075            0.0000000000
     28477      2267  TIP3      H2             27.5567114950       12.6070869356       32.2862302911  TIP3      2075            0.0000000000
     28478      2268  TIP3      OH2            34.6819062783        4.8626082471       28.7745156506  TIP3      2076            0.0000000000
     28479      2268  TIP3      H1             34.7129497188        4.0395190038       29.2632967027  TIP3      2076            0.0000000000
     28480      2268  TIP3      H2             35.4581063629        5.3227061640       29.1646337125  TIP3      2076            0.0000000000
     28481      2269  TIP3      OH2            23.8955203896        6.2222311997       30.3581623484  TIP3      2077            0.0000000000
     28482      2269  TIP3      H1             24.5277485409        6.9044891781       30.6751879727  TIP3      2077            0.0000000000
     28483      2269  TIP3      H2             24.4177439729        5.8051734705       29.6279101268  TIP3      2077            0.0000000000
     28484      2270  TIP3      OH2            25.2956486904       14.0061314012       33.3966606195  TIP3      2078            0.0000000000
     28485      2270  TIP3      H1             25.2501303550       14.9176504464       33.0514349232  TIP3      2078            0.0000000000
     28486      2270  TIP3      H2             24.4112388889       13.9300716444       33.8365800820  TIP3      2078            0.0000000000
     28487      2271  TIP3      OH2            21.3552254659       13.6482394668       24.1601506637  TIP3      2079            0.0000000000
     28488      2271  TIP3      H1             21.0779866341       13.9351401491       23.2823346265  TIP3      2079            0.0000000000
     28489      2271  TIP3      H2             21.4246381748       14.4748750504       24.6675730091  TIP3      2079            0.0000000000
     28490      2272  TIP3      OH2            34.7918392115       15.2224320794       31.0273041422  TIP3      2080            0.0000000000
     28491      2272  TIP3      H1             33.8373502137       15.4299534590       31.0788123358  TIP3      2080            0.0000000000
     28492      2272  TIP3      H2             35.1808097891       16.0750933921       30.7509601359  TIP3      2080            0.0000000000
     28493      2273  TIP3      OH2            35.1035949511        3.6957888345       32.0885205343  TIP3      2081            0.0000000000
     28494      2273  TIP3      H1             34.4216417393        4.3810702385       32.2096673449  TIP3      2081            0.0000000000
     28495      2273  TIP3      H2             35.8753749392        4.1746913322       31.7668010223  TIP3      2081            0.0000000000
     28496      2274  TIP3      OH2            28.2803187763        1.6942291921       29.7963408012  TIP3      2082            0.0000000000
     28497      2274  TIP3      H1             28.1452284789        0.7292230977       29.7268759817  TIP3      2082            0.0000000000
     28498      2274  TIP3      H2             27.4013542280        2.0012249695       30.0991893709  TIP3      2082            0.0000000000
     28499      2275  TIP3      OH2            33.1689969006       17.0074183473       27.5459694093  TIP3      2083            0.0000000000
     28500      2275  TIP3      H1             33.6747119008       16.3341544602       27.0546123517  TIP3      2083            0.0000000000
     28501      2275  TIP3      H2             33.6073892470       17.8168644692       27.1951724536  TIP3      2083            0.0000000000
     28502      2276  TIP3      OH2            34.4508611907       14.9810343015       26.0691268042  TIP3      2084            0.0000000000
     28503      2276  TIP3      H1             34.1625502413       14.2451030139       25.5229173911  TIP3      2084            0.0000000000
     28504      2276  TIP3      H2             34.5129472057       14.4948630585       26.9186988715  TIP3      2084            0.0000000000
     28505      2277  TIP3      OH2            35.8188024300       13.7325959755       34.6563489475  TIP3      2085            0.0000000000
     28506      2277  TIP3      H1             36.0960406416       13.0377156776       34.0257694157  TIP3      2085            0.0000000000
     28507      2277  TIP3      H2             36.2370516133       14.4882927522       34.2095160495  TIP3      2085            0.0000000000
     28508      2278  TIP3      OH2            30.5473062407       10.5267450656       24.3185313290  TIP3      2086            0.0000000000
     28509      2278  TIP3      H1             29.8621091819       11.0774310060       23.8864981467  TIP3      2086            0.0000000000
     28510      2278  TIP3      H2             31.2367057128       10.5119289591       23.6196708061  TIP3      2086            0.0000000000
     28511      2279  TIP3      OH2            33.9690123758       10.7292901660       25.1908942132  TIP3      2087            0.0000000000
     28512      2279  TIP3      H1             33.2734896800       10.9564205618       25.8417755964  TIP3      2087            0.0000000000
     28513      2279  TIP3      H2             34.4759004425       10.0816739196       25.7301286274  TIP3      2087            0.0000000000
     28514      2280  TIP3      OH2            33.9572039465        8.8758652094       34.3235487196  TIP3      2088            0.0000000000
     28515      2280  TIP3      H1             33.9200669532        9.6752379183       34.8729124885  TIP3      2088            0.0000000000
     28516      2280  TIP3      H2             33.3169892632        9.1501213646       33.6395482413  TIP3      2088            0.0000000000
     28517      2281  TIP3      OH2            25.6270921174       11.3561088396       27.1418174910  TIP3      2089            0.0000000000
     28518      2281  TIP3      H1             25.2893405195       10.9642378206       26.3242894248  TIP3      2089            0.0000000000
     28519      2281  TIP3      H2             26.2358854242       10.6624154696       27.4784987591  TIP3      2089            0.0000000000
     28520      2282  TIP3      OH2            26.9532491401       14.7508193353       29.8239594730  TIP3      2090            0.0000000000
     28521      2282  TIP3      H1             26.9339224646       14.2132039203       29.0241594992  TIP3      2090            0.0000000000
     28522      2282  TIP3      H2             27.7319499804       14.3891004153       30.2858938188  TIP3      2090            0.0000000000
     28523      2283  TIP3      OH2            25.9602912709       10.1047458989       30.8063542666  TIP3      2091            0.0000000000
     28524      2283  TIP3      H1             26.5248276972       10.2070169290       30.0171433148  TIP3      2091            0.0000000000
     28525      2283  TIP3      H2             26.3409807629       10.7690143632       31.4201831384  TIP3      2091            0.0000000000
     28526      2284  TIP3      OH2            32.3051688753       15.6861577352       31.4964870833  TIP3      2092            0.0000000000
     28527      2284  TIP3      H1             32.0947038082       16.3105898290       32.1922705407  TIP3      2092            0.0000000000
     28528      2284  TIP3      H2             32.1150237836       14.8167733860       31.9287619300  TIP3      2092            0.0000000000
     28529      2285  TIP3      OH2            26.9107920168       14.5329897368       35.4985777894  TIP3      2093            0.0000000000
     28530      2285  TIP3      H1             26.5064911836       15.2787439975       35.9866361872  TIP3      2093            0.0000000000
     28531      2285  TIP3      H2             26.2355353456       14.3383446884       34.8025101301  TIP3      2093            0.0000000000
     28532      2286  TIP3      OH2            32.8317593182        9.9491968545       22.9087193066  TIP3      2094            0.0000000000
     28533      2286  TIP3      H1             33.4185622568       10.0777131116       23.6865801481  TIP3      2094            0.0000000000
     28534      2286  TIP3      H2             33.3005742966       10.3549966831       22.1604908698  TIP3      2094            0.0000000000
     28535      2287  TIP3      OH2            23.8501975362       10.6965885514       34.6592624808  TIP3      2095            0.0000000000
     28536      2287  TIP3      H1             23.8991084897       11.3631050689       35.3717714011  TIP3      2095            0.0000000000
     28537      2287  TIP3      H2             22.9106965752       10.7898951822       34.4412139906  TIP3      2095            0.0000000000
     28538      2288  TIP3      OH2            30.6204889465       16.6425524167       26.3426011487  TIP3      2096            0.0000000000
     28539      2288  TIP3      H1             31.0328202666       16.9086669452       27.1799668291  TIP3      2096            0.0000000000
     28540      2288  TIP3      H2             30.0318160326       17.3726074854       26.1517970838  TIP3      2096            0.0000000000
     28541      2289  TIP3      OH2            25.1545051886       16.5736578794       36.2486034193  TIP3      2097            0.0000000000
     28542      2289  TIP3      H1             25.1001886330       16.4677615359       35.2838727466  TIP3      2097            0.0000000000
     28543      2289  TIP3      H2             24.2231239351       16.4417491496       36.5129873557  TIP3      2097            0.0000000000
     28544      2290  TIP3      OH2            20.6875982670       12.8054107668       33.6466323365  TIP3      2098            0.0000000000
     28545      2290  TIP3      H1             20.2390196138       12.7273627092       32.7854370482  TIP3      2098            0.0000000000
     28546      2290  TIP3      H2             20.7607854833       11.8590795822       33.8676596098  TIP3      2098            0.0000000000
     28547      2291  TIP3      OH2            20.4497272650       15.5570134625       30.4176762218  TIP3      2099            0.0000000000
     28548      2291  TIP3      H1             21.4062231059       15.4287247654       30.4118482229  TIP3      2099            0.0000000000
     28549      2291  TIP3      H2             20.3659634377       16.3627084015       30.9427118673  TIP3      2099            0.0000000000
     28550      2292  TIP3      OH2            29.6462281807       15.7918184181       34.9861774420  TIP3      2100            0.0000000000
     28551      2292  TIP3      H1             29.7056257761       16.6289883435       35.5047755440  TIP3      2100            0.0000000000
     28552      2292  TIP3      H2             28.7725660209       15.4338627249       35.2351660027  TIP3      2100            0.0000000000
     28553      2293  TIP3      OH2            30.1105782270       19.5398956375       24.7614319185  TIP3      2101            0.0000000000
     28554      2293  TIP3      H1             30.0123904447       19.4658514954       23.8125432521  TIP3      2101            0.0000000000
     28555      2293  TIP3      H2             30.1115600542       20.4890705612       24.9446685375  TIP3      2101            0.0000000000
     28556      2294  TIP3      OH2            23.7287942668       18.3976182568       26.5806052648  TIP3      2102            0.0000000000
     28557      2294  TIP3      H1             23.8769968624       18.0167983158       27.4754221810  TIP3      2102            0.0000000000
     28558      2294  TIP3      H2             22.8613464379       18.0121021132       26.4001290093  TIP3      2102            0.0000000000
     28559      2295  TIP3      OH2            33.1126676669       18.7235869786       21.7674934045  TIP3      2103            0.0000000000
     28560      2295  TIP3      H1             33.5411655394       17.9914156191       21.2833695266  TIP3      2103            0.0000000000
     28561      2295  TIP3      H2             33.1724653782       18.4657342557       22.6961993040  TIP3      2103            0.0000000000
     28562      2296  TIP3      OH2            32.8214103063       18.6568667877       24.5655849446  TIP3      2104            0.0000000000
     28563      2296  TIP3      H1             31.8616896844       18.7347798006       24.7325882380  TIP3      2104            0.0000000000
     28564      2296  TIP3      H2             33.0782458990       17.9219442001       25.1408660947  TIP3      2104            0.0000000000
     28565      2297  TIP3      OH2            35.3672704209        7.8890463426       36.6214273341  TIP3      2105            0.0000000000
     28566      2297  TIP3      H1             35.3141280571        8.2411888548       35.7300313875  TIP3      2105            0.0000000000
     28567      2297  TIP3      H2             35.8701342541        7.0441119030       36.4491836540  TIP3      2105            0.0000000000
     28568      2298  TIP3      OH2            22.9727486942       14.1274455896       34.5958107357  TIP3      2106            0.0000000000
     28569      2298  TIP3      H1             23.1958963398       13.7570058582       35.4775190576  TIP3      2106            0.0000000000
     28570      2298  TIP3      H2             22.1041083936       13.7273123589       34.3824237974  TIP3      2106            0.0000000000
     28571      2299  TIP3      OH2            25.6493837350        2.5950405195       30.5507554754  TIP3      2107            0.0000000000
     28572      2299  TIP3      H1             24.7469799092        2.4765170673       30.1792763238  TIP3      2107            0.0000000000
     28573      2299  TIP3      H2             25.5253971759        3.4308802022       31.0290489120  TIP3      2107            0.0000000000
     28574      2300  TIP3      OH2            30.2933654784        2.2681318374       33.9115394748  TIP3      2108            0.0000000000
     28575      2300  TIP3      H1             30.6885217068        1.8489472071       34.6983320172  TIP3      2108            0.0000000000
     28576      2300  TIP3      H2             29.3218791102        2.1428190336       34.0539586303  TIP3      2108            0.0000000000
     28577      2301  TIP3      OH2            33.5241762212        6.0702105574       34.7530568723  TIP3      2109            0.0000000000
     28578      2301  TIP3      H1             33.0329646071        5.9024115697       35.5917501153  TIP3      2109            0.0000000000
     28579      2301  TIP3      H2             33.4334852640        7.0226911065       34.6050478610  TIP3      2109            0.0000000000
     28580      2302  TIP3      OH2            34.1516212396       10.9499214531       20.5872237017  TIP3      2110            0.0000000000
     28581      2302  TIP3      H1             34.3139435579       10.6142184100       19.6865446211  TIP3      2110            0.0000000000
     28582      2302  TIP3      H2             34.9684446805       11.3229768758       20.8995247502  TIP3      2110            0.0000000000
     28583      2303  TIP3      OH2            29.9345551425        4.8102150822       21.2995253939  TIP3      2111            0.0000000000
     28584      2303  TIP3      H1             29.6087125821        4.7929456957       22.2095376399  TIP3      2111            0.0000000000
     28585      2303  TIP3      H2             29.6412892264        3.9758038519       20.9406262407  TIP3      2111            0.0000000000
     28586      2304  TIP3      OH2            25.7568415313        7.5693008531       31.7944780148  TIP3      2112            0.0000000000
     28587      2304  TIP3      H1             25.0184510560        7.5548692872       32.4314753919  TIP3      2112            0.0000000000
     28588      2304  TIP3      H2             25.7082783073        8.4809195313       31.4278587973  TIP3      2112            0.0000000000
     28589      2305  TIP3      OH2            25.7061313166        7.6942126528       26.6565312759  TIP3      2113            0.0000000000
     28590      2305  TIP3      H1             24.7685705148        7.4441016795       26.5109434899  TIP3      2113            0.0000000000
     28591      2305  TIP3      H2             26.0836527250        7.3848219758       25.8106881891  TIP3      2113            0.0000000000
     28592      2306  TIP3      OH2            31.2473418788        8.1819089896       25.4265505850  TIP3      2114            0.0000000000
     28593      2306  TIP3      H1             30.8282311139        8.9947462174       25.0633369662  TIP3      2114            0.0000000000
     28594      2306  TIP3      H2             31.9317845251        8.0121761664       24.7540716032  TIP3      2114            0.0000000000
     28595      2307  TIP3      OH2            30.3046040151        8.4004330308       36.8759083561  TIP3      2115            0.0000000000
     28596      2307  TIP3      H1             29.7826169831        7.6208967916       37.1781004278  TIP3      2115            0.0000000000
     28597      2307  TIP3      H2             31.1452440986        8.2756536499       37.3511081040  TIP3      2115            0.0000000000
     28598      2308  TIP3      OH2            32.2386926031        7.6907547834       28.2904339723  TIP3      2116            0.0000000000
     28599      2308  TIP3      H1             32.0145505479        8.2419806711       27.5187460176  TIP3      2116            0.0000000000
     28600      2308  TIP3      H2             32.3705990183        6.8351627075       27.8313350858  TIP3      2116            0.0000000000
     28601      2309  TIP3      OH2            23.3815449977        7.8302094104       33.4853527315  TIP3      2117            0.0000000000
     28602      2309  TIP3      H1             23.4490903947        8.2369874719       34.3665377712  TIP3      2117            0.0000000000
     28603      2309  TIP3      H2             22.9346220483        6.9926248469       33.6861514014  TIP3      2117            0.0000000000
     28604      2310  TIP3      OH2            26.7689847773        5.1771157529       20.2887833688  TIP3      2118            0.0000000000
     28605      2310  TIP3      H1             26.3397067832        4.8154278729       21.0824505182  TIP3      2118            0.0000000000
     28606      2310  TIP3      H2             26.0948891582        5.6683347394       19.8298309235  TIP3      2118            0.0000000000
     28607      2311  TIP3      OH2            20.0423300703        4.9352170064       27.4401808592  TIP3      2119            0.0000000000
     28608      2311  TIP3      H1             20.7077459657        4.8885656565       28.1592961617  TIP3      2119            0.0000000000
     28609      2311  TIP3      H2             20.4999902564        4.5357927283       26.6789446996  TIP3      2119            0.0000000000
     28610      2312  TIP3      OH2            21.3391206845        5.7030545807       22.7992816094  TIP3      2120            0.0000000000
     28611      2312  TIP3      H1             21.8617181755        6.3528237500       22.3047962461  TIP3      2120            0.0000000000
     28612      2312  TIP3      H2             20.6854164254        6.2966860711       23.1837505312  TIP3      2120            0.0000000000
     28613      2313  TIP3      OH2            31.4583391443        9.2602597879       32.8366720486  TIP3      2121            0.0000000000
     28614      2313  TIP3      H1             31.8470934223        8.5715142420       32.2546970940  TIP3      2121            0.0000000000
     28615      2313  TIP3      H2             30.9970643788        8.7336753853       33.5132163191  TIP3      2121            0.0000000000
     28616      2314  TIP3      OH2            28.2648147696        5.2408492385       27.6716970045  TIP3      2122            0.0000000000
     28617      2314  TIP3      H1             27.3275904551        5.2477073236       27.9720551951  TIP3      2122            0.0000000000
     28618      2314  TIP3      H2             28.7628495368        5.0818629300       28.4905254985  TIP3      2122            0.0000000000
     28619      2315  TIP3      OH2            23.0678740043        6.7822704782       26.5747901385  TIP3      2123            0.0000000000
     28620      2315  TIP3      H1             22.2152938543        6.9625482997       26.1263461062  TIP3      2123            0.0000000000
     28621      2315  TIP3      H2             23.3713040150        5.9810531264       26.1236168976  TIP3      2123            0.0000000000
     28622      2316  TIP3      OH2            26.7224421667        6.8554447435       24.1697187914  TIP3      2124            0.0000000000
     28623      2316  TIP3      H1             27.6843763159        6.9221796837       24.3222745019  TIP3      2124            0.0000000000
     28624      2316  TIP3      H2             26.5154717705        7.5089981429       23.4908751426  TIP3      2124            0.0000000000
     28625      2317  TIP3      OH2            32.6154100947        4.4460006167       30.9256082793  TIP3      2125            0.0000000000
     28626      2317  TIP3      H1             31.9442884917        4.5267049926       31.6279421821  TIP3      2125            0.0000000000
     28627      2317  TIP3      H2             32.1212252266        4.2400839478       30.1181027303  TIP3      2125            0.0000000000
     28628      2318  TIP3      OH2            35.7665250181       20.1718707925       37.3198072655  TIP3      2126            0.0000000000
     28629      2318  TIP3      H1             36.0461541329       20.4485584638       36.4676382275  TIP3      2126            0.0000000000
     28630      2318  TIP3      H2             36.5247377391       20.4154961205       37.8856392468  TIP3      2126            0.0000000000
     28631      2319  TIP3      OH2            23.5680602941       12.5795568611       36.8123294252  TIP3      2127            0.0000000000
     28632      2319  TIP3      H1             24.2669386428       12.8333338574       37.4364295568  TIP3      2127            0.0000000000
     28633      2319  TIP3      H2             22.7734363374       12.6810388099       37.3823123997  TIP3      2127            0.0000000000
     28634      2320  TIP3      OH2            29.5533211513        7.9964249817       29.5618330211  TIP3      2128            0.0000000000
     28635      2320  TIP3      H1             30.1570574323        7.4650249097       29.0264186424  TIP3      2128            0.0000000000
     28636      2320  TIP3      H2             29.4106617945        7.4504531358       30.3461352782  TIP3      2128            0.0000000000
     28637      2321  TIP3      OH2            24.5861097646        4.1477989331       26.0330503064  TIP3      2129            0.0000000000
     28638      2321  TIP3      H1             24.2499172065        3.2368268025       25.9687747189  TIP3      2129            0.0000000000
     28639      2321  TIP3      H2             25.3360165867        4.0953337494       25.4243242233  TIP3      2129            0.0000000000
     28640      2322  TIP3      OH2            28.1933090309        6.3270158398       31.9770699537  TIP3      2130            0.0000000000
     28641      2322  TIP3      H1             27.3674074592        6.8425034493       32.0681131215  TIP3      2130            0.0000000000
     28642      2322  TIP3      H2             28.7458247214        6.6755963736       32.7032482857  TIP3      2130            0.0000000000
     28643      2323  TIP3      OH2            28.7417007604       12.5568167982       23.6907221937  TIP3      2131            0.0000000000
     28644      2323  TIP3      H1             27.9755041003       12.0739845289       23.3078997822  TIP3      2131            0.0000000000
     28645      2323  TIP3      H2             28.5502376701       12.6649224162       24.6344631461  TIP3      2131            0.0000000000
     28646      2324  TIP3      OH2            35.6599940422       11.7474332820       32.4753941376  TIP3      2132            0.0000000000
     28647      2324  TIP3      H1             36.3927888531       11.9253618541       31.8344153465  TIP3      2132            0.0000000000
     28648      2324  TIP3      H2             34.9025036267       11.7844517916       31.8669938723  TIP3      2132            0.0000000000
     28649      2325  TIP3      OH2            32.6421465424        5.3345958580       21.9038404446  TIP3      2133            0.0000000000
     28650      2325  TIP3      H1             31.7108113151        5.4774027271       21.6367472464  TIP3      2133            0.0000000000
     28651      2325  TIP3      H2             32.9035457668        6.2453052737       22.1421113930  TIP3      2133            0.0000000000
     28652      2326  TIP3      OH2            30.2829821246       12.8048537631       34.9083458443  TIP3      2134            0.0000000000
     28653      2326  TIP3      H1             29.9191144936       12.3917616517       35.6985863989  TIP3      2134            0.0000000000
     28654      2326  TIP3      H2             30.0479620018       13.7335627935       35.0142766295  TIP3      2134            0.0000000000
     28655      2327  TIP3      OH2            33.3496597664        7.3188638421       23.5097552298  TIP3      2135            0.0000000000
     28656      2327  TIP3      H1             34.2494005423        7.1502131773       23.8431542642  TIP3      2135            0.0000000000
     28657      2327  TIP3      H2             33.4044839640        8.1189373366       22.9625875824  TIP3      2135            0.0000000000
     28658      2328  TIP3      OH2            23.8936083998       11.9419369095       29.4742418378  TIP3      2136            0.0000000000
     28659      2328  TIP3      H1             24.5780213512       11.8645658909       28.7828653121  TIP3      2136            0.0000000000
     28660      2328  TIP3      H2             23.9499407766       11.0816213601       29.9287313951  TIP3      2136            0.0000000000
     28661      2329  TIP3      OH2            20.8825726560       10.3439797904       34.7472661442  TIP3      2137            0.0000000000
     28662      2329  TIP3      H1             21.0566390722        9.9013688890       35.5974323551  TIP3      2137            0.0000000000
     28663      2329  TIP3      H2             20.2623720929        9.7339423926       34.3045567883  TIP3      2137            0.0000000000
     28664      2330  TIP3      OH2            27.8906686764        9.8994124223       36.9190008443  TIP3      2138            0.0000000000
     28665      2330  TIP3      H1             27.5772611377        9.6078945382       36.0516235679  TIP3      2138            0.0000000000
     28666      2330  TIP3      H2             28.8193546108        9.5933614939       36.9137615162  TIP3      2138            0.0000000000
     28667      2331  TIP3      OH2            32.5706750511       15.2271422319       34.8607681698  TIP3      2139            0.0000000000
     28668      2331  TIP3      H1             31.6512620666       15.4129662018       34.6221553733  TIP3      2139            0.0000000000
     28669      2331  TIP3      H2             32.5445816067       15.5219514859       35.7909220880  TIP3      2139            0.0000000000
     28670      2332  TIP3      OH2            33.6913006748       11.0482294210       30.7580590836  TIP3      2140            0.0000000000
     28671      2332  TIP3      H1             32.7542995325       10.8266408380       30.6294451643  TIP3      2140            0.0000000000
     28672      2332  TIP3      H2             34.1673081434       10.3044656032       30.3470853602  TIP3      2140            0.0000000000
     28673      2333  TIP3      OH2            26.2475809277       15.3888110088       26.8532107807  TIP3      2141            0.0000000000
     28674      2333  TIP3      H1             26.7677149657       16.1842464214       26.6544736154  TIP3      2141            0.0000000000
     28675      2333  TIP3      H2             25.3748582909       15.6501800400       26.5470950081  TIP3      2141            0.0000000000
     28676      2334  TIP3      OH2            27.6867581271       13.0699071091       26.3724308164  TIP3      2142            0.0000000000
     28677      2334  TIP3      H1             27.3792959070       13.9893856534       26.4767666847  TIP3      2142            0.0000000000
     28678      2334  TIP3      H2             26.9645109266       12.5871457385       26.8228842649  TIP3      2142            0.0000000000
     28679      2335  TIP3      OH2            28.1321528007       17.2437238455       32.7807854013  TIP3      2143            0.0000000000
     28680      2335  TIP3      H1             28.5851032943       18.0559079966       32.4995206371  TIP3      2143            0.0000000000
     28681      2335  TIP3      H2             28.7388942702       16.9099373851       33.4656783395  TIP3      2143            0.0000000000
     28682      2336  TIP3      OH2            26.3573218578       18.0466859973       25.9136652990  TIP3      2144            0.0000000000
     28683      2336  TIP3      H1             25.4042616472       18.2048494945       26.0725430361  TIP3      2144            0.0000000000
     28684      2336  TIP3      H2             26.7291513996       18.8694885767       26.2789981868  TIP3      2144            0.0000000000
     28685      2337  TIP3      OH2            31.6839888403       13.2543617350       32.4136270507  TIP3      2145            0.0000000000
     28686      2337  TIP3      H1             31.3246866360       13.0532333894       33.3041546904  TIP3      2145            0.0000000000
     28687      2337  TIP3      H2             32.3024909391       12.5293348396       32.2379046476  TIP3      2145            0.0000000000
     28688      2338  TIP3      OH2            34.4706916335       17.8196057827       34.8850789079  TIP3      2146            0.0000000000
     28689      2338  TIP3      H1             33.7545080090       17.3268760879       34.4232016987  TIP3      2146            0.0000000000
     28690      2338  TIP3      H2             34.6599139945       18.5128353193       34.2192381909  TIP3      2146            0.0000000000
     28691      2339  TIP3      OH2            22.5299180857        5.0906429854       34.2829867324  TIP3      2147            0.0000000000
     28692      2339  TIP3      H1             21.6210695066        5.4362053885       34.2604548844  TIP3      2147            0.0000000000
     28693      2339  TIP3      H2             22.4170973963        4.2385320672       34.7298268494  TIP3      2147            0.0000000000
     28694      2340  TIP3      OH2            22.1445445437       16.8699159204       32.7141617875  TIP3      2148            0.0000000000
     28695      2340  TIP3      H1             22.4364977031       15.9442718609       32.7194652171  TIP3      2148            0.0000000000
     28696      2340  TIP3      H2             22.4067314830       17.1570841194       33.5967406507  TIP3      2148            0.0000000000
     28697      2341  TIP3      OH2            26.8145797444       14.9383101555       22.4820798361  TIP3      2149            0.0000000000
     28698      2341  TIP3      H1             27.2002238136       14.3750495161       23.1576830876  TIP3      2149            0.0000000000
     28699      2341  TIP3      H2             27.0506698504       15.8197629911       22.7246270018  TIP3      2149            0.0000000000
     28700      2342  TIP3      OH2            31.2341520249        4.8492396858       33.2453836282  TIP3      2150            0.0000000000
     28701      2342  TIP3      H1             31.9780742183        4.9150556175       33.8593090871  TIP3      2150            0.0000000000
     28702      2342  TIP3      H2             30.8670887051        3.9672345722       33.4464638584  TIP3      2150            0.0000000000
     28703      2343  TIP3      OH2            32.0521960214        4.4236105554       24.3580080677  TIP3      2151            0.0000000000
     28704      2343  TIP3      H1             32.2362409671        4.9142857831       23.5245487605  TIP3      2151            0.0000000000
     28705      2343  TIP3      H2             32.6148237859        4.8723800580       24.9973165673  TIP3      2151            0.0000000000
     28706      2344  TIP3      OH2            29.6916802419       16.6741723647       23.1786638598  TIP3      2152            0.0000000000
     28707      2344  TIP3      H1             28.8501323769       17.1244732681       23.1831086331  TIP3      2152            0.0000000000
     28708      2344  TIP3      H2             30.1827922750       17.1327608526       22.4874223461  TIP3      2152            0.0000000000
     28709      2345  TIP3      OH2            29.2163920831        6.2028086227       25.1440702239  TIP3      2153            0.0000000000
     28710      2345  TIP3      H1             30.0315164395        6.7497597159       25.1774378914  TIP3      2153            0.0000000000
     28711      2345  TIP3      H2             28.9848421630        6.0558613096       26.0834782063  TIP3      2153            0.0000000000
     28712      2346  TIP3      OH2            29.8108203458        7.2045705627       34.3384341269  TIP3      2154            0.0000000000
     28713      2346  TIP3      H1             29.8955746429        7.7668569694       35.1324012154  TIP3      2154            0.0000000000
     28714      2346  TIP3      H2             30.4622857659        6.4956345580       34.4319816086  TIP3      2154            0.0000000000
     28715      2347  TIP3      OH2            30.0634409117        3.2472166322       26.0235257282  TIP3      2155            0.0000000000
     28716      2347  TIP3      H1             29.7648279430        3.8966058887       26.6798860061  TIP3      2155            0.0000000000
     28717      2347  TIP3      H2             30.7739206133        3.7810864347       25.5872307570  TIP3      2155            0.0000000000
     28718      2348  TIP3      OH2            25.8218708545        4.3935744678       22.7296824852  TIP3      2156            0.0000000000
     28719      2348  TIP3      H1             25.7102502010        5.2591487596       23.1603353677  TIP3      2156            0.0000000000
     28720      2348  TIP3      H2             26.6979298963        4.1089343552       23.0386206948  TIP3      2156            0.0000000000
     28721      2349  TIP3      OH2            35.8583033006        4.8601756175       35.0055668618  TIP3      2157            0.0000000000
     28722      2349  TIP3      H1             35.0154094407        5.3752204705       35.0301513094  TIP3      2157            0.0000000000
     28723      2349  TIP3      H2             36.2503376545        5.1259501598       34.1747671465  TIP3      2157            0.0000000000
     28724      2350  TIP3      OH2            34.5757047127        8.8584457832       29.2514020417  TIP3      2158            0.0000000000
     28725      2350  TIP3      H1             33.7611910374        8.4259028405       28.9235446654  TIP3      2158            0.0000000000
     28726      2350  TIP3      H2             35.0081766537        8.1398467197       29.7204956693  TIP3      2158            0.0000000000
     28727      2351  TIP3      OH2            35.7034416767       18.1602796813       30.8872413565  TIP3      2159            0.0000000000
     28728      2351  TIP3      H1             35.5432623221       18.7961819535       30.1627477269  TIP3      2159            0.0000000000
     28729      2351  TIP3      H2             36.6543157131       18.2139395945       31.0078723942  TIP3      2159            0.0000000000
     28730      2352  TIP3      OH2            23.1376449423        2.2412808933       29.6645077977  TIP3      2160            0.0000000000
     28731      2352  TIP3      H1             22.9358689180        2.2557591512       28.6980973107  TIP3      2160            0.0000000000
     28732      2352  TIP3      H2             22.7203414670        1.3933184377       29.9229641195  TIP3      2160            0.0000000000
     28733      2353  TIP3      OH2            22.0592703113       16.1718980011       25.7978688545  TIP3      2161            0.0000000000
     28734      2353  TIP3      H1             21.2141741261       16.6360835239       25.7733897930  TIP3      2161            0.0000000000
     28735      2353  TIP3      H2             22.6148138061       16.6374206440       25.1741778477  TIP3      2161            0.0000000000
     28736      2354  TIP3      OH2            21.3019866876       18.8158543825       37.1028809362  TIP3      2162            0.0000000000
     28737      2354  TIP3      H1             21.8973448628       18.6114695417       37.8530232267  TIP3      2162            0.0000000000
     28738      2354  TIP3      H2             20.8855822360       17.9538745269       36.9301953315  TIP3      2162            0.0000000000
     28739      2355  TIP3      OH2            25.9791251740       17.7053205612       38.7167837301  TIP3      2163            0.0000000000
     28740      2355  TIP3      H1             26.7517436116       17.2310894686       39.0445311589  TIP3      2163            0.0000000000
     28741      2355  TIP3      H2             25.9611967460       17.4490975378       37.7737012313  TIP3      2163            0.0000000000
     28742      2356  TIP3      OH2            32.5287744210       16.1083844428       37.4483041148  TIP3      2164            0.0000000000
     28743      2356  TIP3      H1             32.1885492657       15.2314979143       37.7226170588  TIP3      2164            0.0000000000
     28744      2356  TIP3      H2             33.2942359169       16.2153784977       38.0431953453  TIP3      2164            0.0000000000
     28745      2357  TIP3      OH2            34.4832798629       16.7497551759       20.5435691986  TIP3      2165            0.0000000000
     28746      2357  TIP3      H1             35.0391125040       16.0653489637       20.8815560373  TIP3      2165            0.0000000000
     28747      2357  TIP3      H2             35.1416828905       17.3061812394       20.0775905506  TIP3      2165            0.0000000000
     28748      2358  TIP3      OH2            21.2279295941       12.5780105781       38.0853316563  TIP3      2166            0.0000000000
     28749      2358  TIP3      H1             21.3791789079       11.6655804729       37.7726081314  TIP3      2166            0.0000000000
     28750      2358  TIP3      H2             20.4837110387       12.8458828229       37.5161327083  TIP3      2166            0.0000000000
     28751      2359  TIP3      OH2            27.9350013028       12.5626972126       37.4616763478  TIP3      2167            0.0000000000
     28752      2359  TIP3      H1             27.5892985950       12.8766381671       36.6061714187  TIP3      2167            0.0000000000
     28753      2359  TIP3      H2             28.0139534238       11.5861165698       37.3551380336  TIP3      2167            0.0000000000
     28754      2360  TIP3      OH2            33.6026376093       12.4013867399       34.8752286838  TIP3      2168            0.0000000000
     28755      2360  TIP3      H1             34.3888350756       13.0040528459       34.8124200180  TIP3      2168            0.0000000000
     28756      2360  TIP3      H2             32.9225900185       13.0836774368       34.9207775388  TIP3      2168            0.0000000000
     28757      2361  TIP3      OH2            22.1123416406        9.8075130449       37.4785314964  TIP3      2169            0.0000000000
     28758      2361  TIP3      H1             22.5384670241        8.9495208189       37.3877579495  TIP3      2169            0.0000000000
     28759      2361  TIP3      H2             21.8993036965        9.8249757257       38.4295738722  TIP3      2169            0.0000000000
     28760      2362  TIP3      OH2            26.8305085645       10.9127254495       22.5715682821  TIP3      2170            0.0000000000
     28761      2362  TIP3      H1             26.2964515427       10.3963913400       23.1783855240  TIP3      2170            0.0000000000
     28762      2362  TIP3      H2             27.1081360533       10.2963658703       21.8683512405  TIP3      2170            0.0000000000
     28763      2363  TIP3      OH2            26.0304971352        8.7601465625       34.8365653292  TIP3      2171            0.0000000000
     28764      2363  TIP3      H1             25.4314523086        9.4784943980       35.0955432724  TIP3      2171            0.0000000000
     28765      2363  TIP3      H2             26.4210324572        9.1245571087       34.0238898176  TIP3      2171            0.0000000000
     28766      2364  TIP3      OH2            31.1003518344       11.3353102612       38.2510778585  TIP3      2172            0.0000000000
     28767      2364  TIP3      H1             32.0451887160       11.3097564099       38.0559779665  TIP3      2172            0.0000000000
     28768      2364  TIP3      H2             30.9507048997       10.5355752288       38.7739725576  TIP3      2172            0.0000000000
     28769      2365  TIP3      OH2            26.4406058687        6.1481601722       35.8822095813  TIP3      2173            0.0000000000
     28770      2365  TIP3      H1             26.5507009722        5.4246704409       35.2387225059  TIP3      2173            0.0000000000
     28771      2365  TIP3      H2             26.3949613779        6.9535440202       35.3290806042  TIP3      2173            0.0000000000
     28772      2366  TIP3      OH2            26.8361598073        4.5150615835       33.4427879980  TIP3      2174            0.0000000000
     28773      2366  TIP3      H1             27.3473401958        4.9768822766       32.7357574239  TIP3      2174            0.0000000000
     28774      2366  TIP3      H2             25.9446853892        4.4343286812       33.0327342518  TIP3      2174            0.0000000000
     28775      2367  TIP3      OH2            28.3758947740        9.9963887428       33.6836272663  TIP3      2175            0.0000000000
     28776      2367  TIP3      H1             29.1330325542        9.8361584104       33.1106925253  TIP3      2175            0.0000000000
     28777      2367  TIP3      H2             28.0190181536       10.8369120602       33.3550771826  TIP3      2175            0.0000000000
     28778      2368  TIP3      OH2            32.8214165124        7.7751711292       38.6541747542  TIP3      2176            0.0000000000
     28779      2368  TIP3      H1             33.0416800460        6.8331964096       38.5752967691  TIP3      2176            0.0000000000
     28780      2368  TIP3      H2             33.6978280870        8.1824609885       38.6147190465  TIP3      2176            0.0000000000
     28781      2369  TIP3      OH2            34.1407601555       10.5965433860       36.8263328443  TIP3      2177            0.0000000000
     28782      2369  TIP3      H1             33.8393461839       11.2765408418       36.1838025579  TIP3      2177            0.0000000000
     28783      2369  TIP3      H2             35.0655260471       10.4808697894       36.6006345681  TIP3      2177            0.0000000000
     28784      2370  TIP3      OH2            24.9117584718        7.3769534764       37.8385369845  TIP3      2178            0.0000000000
     28785      2370  TIP3      H1             24.1243613123        6.8322894140       37.6278193412  TIP3      2178            0.0000000000
     28786      2370  TIP3      H2             25.5451584938        7.0249530479       37.1838735253  TIP3      2178            0.0000000000
     28787      2371  TIP3      OH2            27.6208979367        1.9512037222       33.8500483362  TIP3      2179            0.0000000000
     28788      2371  TIP3      H1             27.4544345133        2.9153471219       33.7412116070  TIP3      2179            0.0000000000
     28789      2371  TIP3      H2             26.8763084683        1.5894011961       33.3378456760  TIP3      2179            0.0000000000
     28790      2372  TIP3      OH2            28.8932292126        6.2768244915       37.4691341287  TIP3      2180            0.0000000000
     28791      2372  TIP3      H1             28.5825732940        6.0633822465       38.3670229340  TIP3      2180            0.0000000000
     28792      2372  TIP3      H2             28.1047373013        6.0853439634       36.9231098712  TIP3      2180            0.0000000000
     28793      2373  TIP3      OH2            31.5740515032        5.4317910807       36.5309248063  TIP3      2181            0.0000000000
     28794      2373  TIP3      H1             30.6174466377        5.4683738991       36.6783550985  TIP3      2181            0.0000000000
     28795      2373  TIP3      H2             31.9004478713        4.8050837676       37.2062264897  TIP3      2181            0.0000000000
     28796      2374  TIP3      OH2            33.2328979270        4.0337987777       38.4682454475  TIP3      2182            0.0000000000
     28797      2374  TIP3      H1             33.1425111531        3.0594551875       38.4890581441  TIP3      2182            0.0000000000
     28798      2374  TIP3      H2             32.9355639108        4.3441997096       39.3591521183  TIP3      2182            0.0000000000
     28799      2375  TIP3      OH2            22.9779868782        5.3166040940       37.5487709892  TIP3      2183            0.0000000000
     28800      2375  TIP3      H1             23.2367255299        4.5852269095       36.9620132866  TIP3      2183            0.0000000000
     28801      2375  TIP3      H2             22.9128818473        4.9024958115       38.4306324620  TIP3      2183            0.0000000000
     28802      2376  TIP3      OH2            27.8442113436        1.3318424670       36.5335140311  TIP3      2184            0.0000000000
     28803      2376  TIP3      H1             28.5340778036        0.6361805706       36.5017951634  TIP3      2184            0.0000000000
     28804      2376  TIP3      H2             27.7317651800        1.4988115466       35.5792335122  TIP3      2184            0.0000000000
     28805      2377  TIP3      OH2            28.1569492070        2.9301085826       38.6435324553  TIP3      2185            0.0000000000
     28806      2377  TIP3      H1             28.0443224998        2.4536171250       37.7850405210  TIP3      2185            0.0000000000
     28807      2377  TIP3      H2             27.6269189611        3.7386178665       38.5155126579  TIP3      2185            0.0000000000
     28808      2378  TIP3      OH2            20.0252731934       19.8407637905       26.2381753720  TIP3      2186            0.0000000000
     28809      2378  TIP3      H1             19.2783747741       19.3604747844       25.8138184506  TIP3      2186            0.0000000000
     28810      2378  TIP3      H2             20.2728707554       19.2057617900       26.9422449130  TIP3      2186            0.0000000000
     28811      2379  TIP3      OH2            20.8504392182       17.9634351516       28.1166579575  TIP3      2187            0.0000000000
     28812      2379  TIP3      H1             20.4719289254       17.0957657013       28.3315858717  TIP3      2187            0.0000000000
     28813      2379  TIP3      H2             21.0608807011       18.2968577802       29.0112341091  TIP3      2187            0.0000000000
     28814      2380  TIP3      OH2            36.2955295475       16.0546293282       33.3094531452  TIP3      2188            0.0000000000
     28815      2380  TIP3      H1             35.6178776000       16.4318657447       33.8805811606  TIP3      2188            0.0000000000
     28816      2380  TIP3      H2             35.7793629194       15.6602752175       32.5817362534  TIP3      2188            0.0000000000
     28817      2381  TIP3      OH2            35.3691030256        9.0336982571       26.6541864969  TIP3      2189            0.0000000000
     28818      2381  TIP3      H1             35.6457505492        8.1111855729       26.6654924065  TIP3      2189            0.0000000000
     28819      2381  TIP3      H2             35.5056469083        9.2669792187       27.5946038643  TIP3      2189            0.0000000000
     28820      2382  TIP3      OH2            20.8843505097       11.0396506503       30.6188559853  TIP3      2190            0.0000000000
     28821      2382  TIP3      H1             21.0719643018       10.9588478394       29.6577590653  TIP3      2190            0.0000000000
     28822      2382  TIP3      H2             21.7771436094       10.8704500751       30.9799881544  TIP3      2190            0.0000000000
     28823      2383  TIP3      OH2            35.7073526985        5.3598996575       20.0001720721  TIP3      2191            0.0000000000
     28824      2383  TIP3      H1             36.4629293457        4.9577328676       20.4492142416  TIP3      2191            0.0000000000
     28825      2383  TIP3      H2             35.0177034484        4.6938622554       20.1618648973  TIP3      2191            0.0000000000
     28826      2384  TIP3      OH2            35.5220070998        6.4810062998       24.9064344356  TIP3      2192            0.0000000000
     28827      2384  TIP3      H1             35.8243733095        5.6304024534       25.2589660370  TIP3      2192            0.0000000000
     28828      2384  TIP3      H2             36.3392121164        6.8467507087       24.5501985649  TIP3      2192            0.0000000000
     28829      2385  TIP3      OH2           -37.0410145100        6.2590277269       30.4493626639  TIP3      2193            0.0000000000
     28830      2385  TIP3      H1            -36.1569203190        6.6258361785       30.3320211483  TIP3      2193            0.0000000000
     28831      2385  TIP3      H2            -37.2485686265        6.9009943223       31.1514219813  TIP3      2193            0.0000000000
     28832      2386  TIP3      OH2            36.2655428859        7.8597367325       33.4806202148  TIP3      2194            0.0000000000
     28833      2386  TIP3      H1             35.3359417697        8.1333643481       33.5925350011  TIP3      2194            0.0000000000
     28834      2386  TIP3      H2             36.6375693963        8.5702207868       32.9223888208  TIP3      2194            0.0000000000
     28835      2387  TIP3      OH2            20.5018472623        6.3375521006       36.7575296369  TIP3      2195            0.0000000000
     28836      2387  TIP3      H1             21.4384946488        6.1470699801       36.9601774337  TIP3      2195            0.0000000000
     28837      2387  TIP3      H2             20.0368518491        5.5297859290       37.0564477329  TIP3      2195            0.0000000000
     28838      2388  TIP3      OH2            35.2871515807        3.5015038692       25.7540752603  TIP3      2196            0.0000000000
     28839      2388  TIP3      H1             36.2331215234        3.3396437942       25.9386356279  TIP3      2196            0.0000000000
     28840      2388  TIP3      H2             35.3192793734        3.1035742187       24.8530939433  TIP3      2196            0.0000000000
     28841      2389  TIP3      OH2            21.7015943930        4.6313213600       29.6286007059  TIP3      2197            0.0000000000
     28842      2389  TIP3      H1             22.1687330442        3.8118910537       29.8939109210  TIP3      2197            0.0000000000
     28843      2389  TIP3      H2             22.2446658473        5.3274935674       30.0203149223  TIP3      2197            0.0000000000
     28844      2390  TIP3      OH2            19.9884613520        7.6312081772       30.6674650250  TIP3      2198            0.0000000000
     28845      2390  TIP3      H1             20.5484191533        7.3874808981       29.9028148119  TIP3      2198            0.0000000000
     28846      2390  TIP3      H2             20.4443838834        8.4429866139       30.9337331130  TIP3      2198            0.0000000000
     28847      2391  TIP3      OH2            20.3419997107        3.9539729083       24.7815264908  TIP3      2199            0.0000000000
     28848      2391  TIP3      H1             19.3962592097        4.0545571305       24.6171644904  TIP3      2199            0.0000000000
     28849      2391  TIP3      H2             20.7885409847        4.3405527983       24.0104574459  TIP3      2199            0.0000000000
     28850      2392  TIP3      OH2            34.9063623215       18.6493126291       26.7647626138  TIP3      2200            0.0000000000
     28851      2392  TIP3      H1             35.5833066981       18.3438953540       26.1468634470  TIP3      2200            0.0000000000
     28852      2392  TIP3      H2             35.4164356670       19.2670025730       27.3269743012  TIP3      2200            0.0000000000
     28853      2393  TIP3      OH2            20.3024031010        2.5512564898       33.0395679146  TIP3      2201            0.0000000000
     28854      2393  TIP3      H1             19.6319364709        2.3570559663       33.7173376911  TIP3      2201            0.0000000000
     28855      2393  TIP3      H2             19.8442114276        3.2246534072       32.4959240600  TIP3      2201            0.0000000000
     28856      2394  TIP3      OH2            22.5347913929       15.7664692663       37.2102485404  TIP3      2202            0.0000000000
     28857      2394  TIP3      H1             21.6866631962       15.9562945182       36.7780870157  TIP3      2202            0.0000000000
     28858      2394  TIP3      H2             22.2674306534       15.6943095620       38.1334718955  TIP3      2202            0.0000000000
     28859      2395  TIP3      OH2            25.4390211421       16.7519246091       33.4787679178  TIP3      2203            0.0000000000
     28860      2395  TIP3      H1             25.0980303748       17.6135005399       33.2026587268  TIP3      2203            0.0000000000
     28861      2395  TIP3      H2             26.3645860723       16.8437094804       33.1720744346  TIP3      2203            0.0000000000
     28862      2396  TIP3      OH2            29.7601260639       18.1757505668       36.3863057800  TIP3      2204            0.0000000000
     28863      2396  TIP3      H1             29.8990072105       17.8282744055       37.3011560066  TIP3      2204            0.0000000000
     28864      2396  TIP3      H2             30.6599710948       18.4763034264       36.1473433224  TIP3      2204            0.0000000000
     28865      2397  TIP3      OH2            32.0834497023       19.4601051327       35.6844892588  TIP3      2205            0.0000000000
     28866      2397  TIP3      H1             32.7953562510       18.8432372717       35.4611645348  TIP3      2205            0.0000000000
     28867      2397  TIP3      H2             32.4381760307       19.8783236379       36.4962810579  TIP3      2205            0.0000000000
     28868      2398  TIP3      OH2            22.8621516414       19.9902305546       33.4758750699  TIP3      2206            0.0000000000
     28869      2398  TIP3      H1             22.1318766345       20.4853157008       33.0757439721  TIP3      2206            0.0000000000
     28870      2398  TIP3      H2             22.5450666072       19.7945647131       34.3692325220  TIP3      2206            0.0000000000
     28871      2399  TIP3      OH2            25.3320588321       19.5672456554       32.5497949678  TIP3      2207            0.0000000000
     28872      2399  TIP3      H1             24.4389153961       19.7058304140       32.9447697848  TIP3      2207            0.0000000000
     28873      2399  TIP3      H2             25.2732366833       20.1580073775       31.7749513067  TIP3      2207            0.0000000000
     28874      2400  TIP3      OH2            30.0062471059       19.4660110080       31.7324699979  TIP3      2208            0.0000000000
     28875      2400  TIP3      H1             29.5692803598       20.0298063508       31.0762167468  TIP3      2208            0.0000000000
     28876      2400  TIP3      H2             30.1723762215       20.1102837948       32.4546388431  TIP3      2208            0.0000000000
     28877      2401  TIP3      OH2            32.3358902454       18.3001682087       32.7390623685  TIP3      2209            0.0000000000
     28878      2401  TIP3      H1             31.4682820659       18.5528162254       32.3838863535  TIP3      2209            0.0000000000
     28879      2401  TIP3      H2             32.7723015859       19.1618881733       32.6515911433  TIP3      2209            0.0000000000
     28880      2402  TIP3      OH2            34.8434557214       19.8793423761       33.0012681995  TIP3      2210            0.0000000000
     28881      2402  TIP3      H1             34.7285774304       20.8086815245       32.7142245945  TIP3      2210            0.0000000000
     28882      2402  TIP3      H2             35.0959129244       19.4801191924       32.1357633089  TIP3      2210            0.0000000000
     28883      2403  TIP3      OH2            22.3153311595       18.6331208745       30.4179270365  TIP3      2211            0.0000000000
     28884      2403  TIP3      H1             22.2404909706       18.1815154507       31.2859103140  TIP3      2211            0.0000000000
     28885      2403  TIP3      H2             23.1323931267       18.2624256943       30.0267984653  TIP3      2211            0.0000000000
     28886      2404  TIP3      OH2            24.3879207770       17.3537631826       29.0828149646  TIP3      2212            0.0000000000
     28887      2404  TIP3      H1             24.2278312430       16.4167667422       29.3049798544  TIP3      2212            0.0000000000
     28888      2404  TIP3      H2             25.2528796262       17.5022612070       29.5240930655  TIP3      2212            0.0000000000
     28889      2405  TIP3      OH2            26.9672210462       17.8316950352       29.9503355309  TIP3      2213            0.0000000000
     28890      2405  TIP3      H1             27.1551539529       16.9182118899       29.6708559537  TIP3      2213            0.0000000000
     28891      2405  TIP3      H2             27.0318920822       17.7573888416       30.9148275081  TIP3      2213            0.0000000000
     28892      2406  TIP3      OH2            30.4353746275        3.4840397782       29.0763391793  TIP3      2214            0.0000000000
     28893      2406  TIP3      H1             29.7734443986        2.8338459364       29.3596685193  TIP3      2214            0.0000000000
     28894      2406  TIP3      H2             31.0067600458        2.9603238020       28.5002012680  TIP3      2214            0.0000000000
     28895      2407  TIP3      OH2            35.6044501858        1.5329843766       29.1652201715  TIP3      2215            0.0000000000
     28896      2407  TIP3      H1             36.1831746274        2.1366485009       28.6896426339  TIP3      2215            0.0000000000
     28897      2407  TIP3      H2             34.7136598051        1.8895997921       28.9447867608  TIP3      2215            0.0000000000
     28898      2408  TIP3      OH2            22.8111824409        2.1060202684       26.9678852914  TIP3      2216            0.0000000000
     28899      2408  TIP3      H1             22.0406156331        1.9200608082       26.4005624559  TIP3      2216            0.0000000000
     28900      2408  TIP3      H2             23.2937333164        1.2639272785       26.8617922069  TIP3      2216            0.0000000000
     28901      2409  TIP3      OH2            27.3095754650        2.0361189183       26.7062933273  TIP3      2217            0.0000000000
     28902      2409  TIP3      H1             28.2061124641        2.4040037267       26.6554087771  TIP3      2217            0.0000000000
     28903      2409  TIP3      H2             27.2572930946        1.8147633719       27.6358896412  TIP3      2217            0.0000000000
     28904      2410  TIP3      OH2            33.0184618161        2.0212811764       28.3484112687  TIP3      2218            0.0000000000
     28905      2410  TIP3      H1             32.9792433243        2.1902855037       27.3993509125  TIP3      2218            0.0000000000
     28906      2410  TIP3      H2             32.6048973075        1.1316445151       28.4590323656  TIP3      2218            0.0000000000
     28907      2411  TIP3      OH2            34.2312354975        2.0406618531       23.9278959499  TIP3      2219            0.0000000000
     28908      2411  TIP3      H1             33.5163356304        2.6836618550       23.8502307470  TIP3      2219            0.0000000000
     28909      2411  TIP3      H2             33.7917045505        1.2039129729       24.1846648885  TIP3      2219            0.0000000000
     28910      2412  TIP3      OH2            28.4595779880        4.0831854100       23.5676102575  TIP3      2220            0.0000000000
     28911      2412  TIP3      H1             28.6936565084        3.4902855769       24.2992279114  TIP3      2220            0.0000000000
     28912      2412  TIP3      H2             28.5177190627        4.9469085177       24.0311919745  TIP3      2220            0.0000000000
     28913      2413  TIP3      OH2            22.6979420103        2.6616534896       36.4267165952  TIP3      2221            0.0000000000
     28914      2413  TIP3      H1             22.3268041446        1.8253782474       36.7629325894  TIP3      2221            0.0000000000
     28915      2413  TIP3      H2             23.6325438132        2.6133875968       36.7275467740  TIP3      2221            0.0000000000
     28916      2414  TIP3      OH2            24.6955398468        2.0351616630       38.0949075994  TIP3      2222            0.0000000000
     28917      2414  TIP3      H1             25.5788032693        1.7311984457       37.7700443378  TIP3      2222            0.0000000000
     28918      2414  TIP3      H2             24.3807795237        1.1659127017       38.3916681983  TIP3      2222            0.0000000000
     28919      2415  TIP3      OH2            33.1318348374        1.3460720198       38.1641240052  TIP3      2223            0.0000000000
     28920      2415  TIP3      H1             33.2147959238        0.8583414866       39.0065804392  TIP3      2223            0.0000000000
     28921      2415  TIP3      H2             34.0470601990        1.3157355741       37.8028991010  TIP3      2223            0.0000000000
     28922      2416  TIP3      OH2            36.1298999727       17.2602771503       36.9421500277  TIP3      2224            0.0000000000
     28923      2416  TIP3      H1             35.4491829232       17.1756148093       36.2407945704  TIP3      2224            0.0000000000
     28924      2416  TIP3      H2             36.1305819224       18.2343097070       37.0330351731  TIP3      2224            0.0000000000
     28925      2417  TIP3      OH2           -24.6541759204       30.0845838822       26.8080429555  TIP3      2225            0.0000000000
     28926      2417  TIP3      H1            -24.6459383417       31.0664000773       26.7566288700  TIP3      2225            0.0000000000
     28927      2417  TIP3      H2            -25.3799915395       29.8614453294       26.2039283424  TIP3      2225            0.0000000000
     28928      2418  TIP3      OH2           -25.7977269132       29.3715620322       30.2968398886  TIP3      2226            0.0000000000
     28929      2418  TIP3      H1            -25.8134148541       28.7249157836       31.0123697511  TIP3      2226            0.0000000000
     28930      2418  TIP3      H2            -26.1352792956       28.8737469286       29.5359102864  TIP3      2226            0.0000000000
     28931      2419  TIP3      OH2           -33.3978193349       29.0228390539       31.8132225566  TIP3      2227            0.0000000000
     28932      2419  TIP3      H1            -33.3376517451       28.3563853815       32.5304684885  TIP3      2227            0.0000000000
     28933      2419  TIP3      H2            -32.6932170765       29.6283170889       32.0795870036  TIP3      2227            0.0000000000
     28934      2420  TIP3      OH2           -22.1243599061       32.2852982901       28.5544007749  TIP3      2228            0.0000000000
     28935      2420  TIP3      H1            -22.5346285783       31.5925572979       29.0753466334  TIP3      2228            0.0000000000
     28936      2420  TIP3      H2            -22.0438471848       33.0098437353       29.2162142832  TIP3      2228            0.0000000000
     28937      2421  TIP3      OH2           -32.5059865474       33.4799341463       30.3832557172  TIP3      2229            0.0000000000
     28938      2421  TIP3      H1            -32.8518027909       32.6412999700       30.0231450870  TIP3      2229            0.0000000000
     28939      2421  TIP3      H2            -31.5604709652       33.2757623278       30.3936466930  TIP3      2229            0.0000000000
     28940      2422  TIP3      OH2           -35.6346640969       27.0271390952       25.4103517568  TIP3      2230            0.0000000000
     28941      2422  TIP3      H1            -36.1109961417       27.8067194811       25.7849659533  TIP3      2230            0.0000000000
     28942      2422  TIP3      H2            -36.3777906372       26.4561230023       25.2797348902  TIP3      2230            0.0000000000
     28943      2423  TIP3      OH2           -35.1907118101       29.2088580822       27.9335824898  TIP3      2231            0.0000000000
     28944      2423  TIP3      H1            -34.9122274550       28.4473338125       28.4646545261  TIP3      2231            0.0000000000
     28945      2423  TIP3      H2            -34.4582896448       29.3689643135       27.3264084883  TIP3      2231            0.0000000000
     28946      2424  TIP3      OH2           -27.4252969222       31.7761303883       30.7345185971  TIP3      2232            0.0000000000
     28947      2424  TIP3      H1            -27.0801658781       31.1153231528       30.1146363393  TIP3      2232            0.0000000000
     28948      2424  TIP3      H2            -26.6227197893       31.9542953731       31.2656514748  TIP3      2232            0.0000000000
     28949      2425  TIP3      OH2           -18.8189620197       23.4201348349       31.4908612035  TIP3      2233            0.0000000000
     28950      2425  TIP3      H1            -18.6512442957       24.0131784863       32.2541669053  TIP3      2233            0.0000000000
     28951      2425  TIP3      H2            -18.2604546124       23.8467277766       30.8253984071  TIP3      2233            0.0000000000
     28952      2426  TIP3      OH2           -24.2566802366       26.2239396299       31.0665369632  TIP3      2234            0.0000000000
     28953      2426  TIP3      H1            -24.0912100297       25.2676025380       31.0697988535  TIP3      2234            0.0000000000
     28954      2426  TIP3      H2            -24.3560187920       26.3729320503       30.1061498631  TIP3      2234            0.0000000000
     28955      2427  TIP3      OH2           -31.1438279369       24.3109226936       28.2942952469  TIP3      2235            0.0000000000
     28956      2427  TIP3      H1            -31.0305710301       25.1424773053       27.8035547376  TIP3      2235            0.0000000000
     28957      2427  TIP3      H2            -31.5346182697       23.7528008871       27.5845183335  TIP3      2235            0.0000000000
     28958      2428  TIP3      OH2           -23.4161472229       24.4113289606       26.6922740132  TIP3      2236            0.0000000000
     28959      2428  TIP3      H1            -22.7368535848       24.0913580095       27.3323485625  TIP3      2236            0.0000000000
     28960      2428  TIP3      H2            -22.8645401834       24.9371271363       26.0883833296  TIP3      2236            0.0000000000
     28961      2429  TIP3      OH2           -34.5199955882       26.6775853540       28.9723162375  TIP3      2237            0.0000000000
     28962      2429  TIP3      H1            -33.8226365438       26.1726647032       29.4393738524  TIP3      2237            0.0000000000
     28963      2429  TIP3      H2            -34.3703224770       26.3733162249       28.0704350061  TIP3      2237            0.0000000000
     28964      2430  TIP3      OH2           -29.3591258411       28.2795154734       28.3324028823  TIP3      2238            0.0000000000
     28965      2430  TIP3      H1            -28.6865318376       27.7114648101       28.7501263937  TIP3      2238            0.0000000000
     28966      2430  TIP3      H2            -29.8720703811       27.5984508518       27.8506630181  TIP3      2238            0.0000000000
     28967      2431  TIP3      OH2           -18.3787959726       24.8327310409       33.7637515066  TIP3      2239            0.0000000000
     28968      2431  TIP3      H1            -18.9950460466       25.5895299392       33.6583322550  TIP3      2239            0.0000000000
     28969      2431  TIP3      H2            -18.3483226047       24.7391528867       34.7233021928  TIP3      2239            0.0000000000
     28970      2432  TIP3      OH2           -32.1897504118       23.2160675083       32.3402104407  TIP3      2240            0.0000000000
     28971      2432  TIP3      H1            -32.4861044937       23.7741428833       31.5830920516  TIP3      2240            0.0000000000
     28972      2432  TIP3      H2            -32.8935615429       23.4577312500       32.9896555725  TIP3      2240            0.0000000000
     28973      2433  TIP3      OH2           -24.9796632835       32.6775670951       25.9024160169  TIP3      2241            0.0000000000
     28974      2433  TIP3      H1            -25.1835815833       32.4259305699       24.9948062402  TIP3      2241            0.0000000000
     28975      2433  TIP3      H2            -25.2203431711       33.6124511713       25.9226512027  TIP3      2241            0.0000000000
     28976      2434  TIP3      OH2           -29.7125944512       30.8379149823       32.5862629094  TIP3      2242            0.0000000000
     28977      2434  TIP3      H1            -30.4253366769       31.4825991407       32.7909058409  TIP3      2242            0.0000000000
     28978      2434  TIP3      H2            -29.0098998798       31.4392150262       32.2916257442  TIP3      2242            0.0000000000
     28979      2435  TIP3      OH2           -21.6050121081       23.7398518243       28.6424570738  TIP3      2243            0.0000000000
     28980      2435  TIP3      H1            -21.8119897229       22.9791112953       29.1938700319  TIP3      2243            0.0000000000
     28981      2435  TIP3      H2            -20.9258716889       24.1894059807       29.1696769635  TIP3      2243            0.0000000000
     28982      2436  TIP3      OH2           -32.6889134813       25.0587064358       30.3549356700  TIP3      2244            0.0000000000
     28983      2436  TIP3      H1            -32.0692878555       25.7505046520       30.6899589434  TIP3      2244            0.0000000000
     28984      2436  TIP3      H2            -32.1432297950       24.6714917561       29.6182630627  TIP3      2244            0.0000000000
     28985      2437  TIP3      OH2           -31.2682627387       32.8476542930       33.3653631132  TIP3      2245            0.0000000000
     28986      2437  TIP3      H1            -31.3247603728       33.7618532732       33.0338625808  TIP3      2245            0.0000000000
     28987      2437  TIP3      H2            -32.1529461467       32.7663210653       33.8012933893  TIP3      2245            0.0000000000
     28988      2438  TIP3      OH2           -35.2614154443       32.5050571310       24.3319714440  TIP3      2246            0.0000000000
     28989      2438  TIP3      H1            -35.4009128740       32.7371038837       23.3720805790  TIP3      2246            0.0000000000
     28990      2438  TIP3      H2            -35.1032927578       33.3722335433       24.7102531791  TIP3      2246            0.0000000000
     28991      2439  TIP3      OH2           -21.3267050548       33.9233234892       30.6278522493  TIP3      2247            0.0000000000
     28992      2439  TIP3      H1            -22.2409835974       33.9682355026       30.9491838483  TIP3      2247            0.0000000000
     28993      2439  TIP3      H2            -21.1997273931       34.8969434249       30.7208714106  TIP3      2247            0.0000000000
     28994      2440  TIP3      OH2           -21.2607504085       22.4326765543       32.3326635047  TIP3      2248            0.0000000000
     28995      2440  TIP3      H1            -21.9867147006       23.0644562945       32.2470738950  TIP3      2248            0.0000000000
     28996      2440  TIP3      H2            -20.5499918823       22.8527548030       31.8065615333  TIP3      2248            0.0000000000
     28997      2441  TIP3      OH2           -28.2838859678       20.5516739975       29.8016528950  TIP3      2249            0.0000000000
     28998      2441  TIP3      H1            -28.4159017929       19.5864792673       29.7249066719  TIP3      2249            0.0000000000
     28999      2441  TIP3      H2            -29.1693313255       20.8428810282       30.1021781647  TIP3      2249            0.0000000000
     29000      2442  TIP3      OH2           -23.3657922281       35.6530692602       27.2817900545  TIP3      2250            0.0000000000
     29001      2442  TIP3      H1            -22.7165360000       35.0287234430       26.8955512956  TIP3      2250            0.0000000000
     29002      2442  TIP3      H2            -22.8743642009       36.4631834141       27.1338180820  TIP3      2250            0.0000000000
     29003      2443  TIP3      OH2           -22.1161551101       33.7903800308       26.0437666888  TIP3      2251            0.0000000000
     29004      2443  TIP3      H1            -22.3966770240       33.1059767087       25.4244769586  TIP3      2251            0.0000000000
     29005      2443  TIP3      H2            -22.0798107731       33.3281257392       26.9042153885  TIP3      2251            0.0000000000
     29006      2444  TIP3      OH2           -20.4654156350       32.4668709827       34.5611240173  TIP3      2252            0.0000000000
     29007      2444  TIP3      H1            -20.3618865205       31.8208898037       33.8319471630  TIP3      2252            0.0000000000
     29008      2444  TIP3      H2            -20.2919613631       33.3131027365       34.1000288097  TIP3      2252            0.0000000000
     29009      2445  TIP3      OH2           -25.9911192018       29.3880310064       24.3253425535  TIP3      2253            0.0000000000
     29010      2445  TIP3      H1            -26.6991728324       29.9188506789       23.9276631187  TIP3      2253            0.0000000000
     29011      2445  TIP3      H2            -25.3034325609       29.4175804129       23.6311785218  TIP3      2253            0.0000000000
     29012      2446  TIP3      OH2           -25.8916289512       27.8613941991       21.3974303253  TIP3      2254            0.0000000000
     29013      2446  TIP3      H1            -25.1439596094       27.8834175835       22.0064776753  TIP3      2254            0.0000000000
     29014      2446  TIP3      H2            -25.6626456862       27.2050672991       20.7299403482  TIP3      2254            0.0000000000
     29015      2447  TIP3      OH2           -18.6076308065       28.7643801186       32.5861132311  TIP3      2255            0.0000000000
     29016      2447  TIP3      H1            -19.2700903198       29.4825940871       32.6324114702  TIP3      2255            0.0000000000
     29017      2447  TIP3      H2            -18.1281483724       29.0092343842       31.7748628751  TIP3      2255            0.0000000000
     29018      2448  TIP3      OH2           -22.5476871831       29.5762592450       25.2564527847  TIP3      2256            0.0000000000
     29019      2448  TIP3      H1            -23.2968526093       29.7995061260       25.8557218945  TIP3      2256            0.0000000000
     29020      2448  TIP3      H2            -22.0906795592       28.8584273293       25.7304982404  TIP3      2256            0.0000000000
     29021      2449  TIP3      OH2           -22.6270974690       27.7230341571       34.3433678053  TIP3      2257            0.0000000000
     29022      2449  TIP3      H1            -22.6164571426       28.5392380199       34.8701723677  TIP3      2257            0.0000000000
     29023      2449  TIP3      H2            -23.2569228028       28.0152495320       33.6538537159  TIP3      2257            0.0000000000
     29024      2450  TIP3      OH2           -30.9117923811       30.2232885598       27.1421136623  TIP3      2258            0.0000000000
     29025      2450  TIP3      H1            -31.2676308353       29.8091461894       26.3522660492  TIP3      2258            0.0000000000
     29026      2450  TIP3      H2            -30.3106179369       29.5293216179       27.5018991032  TIP3      2258            0.0000000000
     29027      2451  TIP3      OH2           -29.5217013024       33.6847240022       29.7553819363  TIP3      2259            0.0000000000
     29028      2451  TIP3      H1            -29.6276608073       33.0439853401       29.0422506847  TIP3      2259            0.0000000000
     29029      2451  TIP3      H2            -28.8569547383       33.2233687700       30.3065609082  TIP3      2259            0.0000000000
     29030      2452  TIP3      OH2           -30.5788348113       28.9598813159       30.8052975634  TIP3      2260            0.0000000000
     29031      2452  TIP3      H1            -30.0176145346       29.0789681645       30.0220736089  TIP3      2260            0.0000000000
     29032      2452  TIP3      H2            -30.2275376328       29.6346517909       31.4268259165  TIP3      2260            0.0000000000
     29033      2453  TIP3      OH2           -25.1124870827       34.3652513194       31.4552921227  TIP3      2261            0.0000000000
     29034      2453  TIP3      H1            -24.5710369734       35.0458674715       31.9205605756  TIP3      2261            0.0000000000
     29035      2453  TIP3      H2            -24.6106163103       33.6208315650       31.8680177219  TIP3      2261            0.0000000000
     29036      2454  TIP3      OH2           -29.6622232798       33.3906904736       35.5000281941  TIP3      2262            0.0000000000
     29037      2454  TIP3      H1            -30.0790892503       34.1440237046       35.9773309413  TIP3      2262            0.0000000000
     29038      2454  TIP3      H2            -30.3297300478       33.1678503589       34.8022296908  TIP3      2262            0.0000000000
     29039      2455  TIP3      OH2           -23.7141645490       28.7226091579       22.9159133592  TIP3      2263            0.0000000000
     29040      2455  TIP3      H1            -23.1308391905       28.9021145334       23.6887456026  TIP3      2263            0.0000000000
     29041      2455  TIP3      H2            -23.2719175991       29.2365222258       22.2216416821  TIP3      2263            0.0000000000
     29042      2456  TIP3      OH2           -32.7196186883       29.5656407966       34.6840890491  TIP3      2264            0.0000000000
     29043      2456  TIP3      H1            -32.6771171153       30.2426907051       35.3814113694  TIP3      2264            0.0000000000
     29044      2456  TIP3      H2            -33.6595364786       29.6571194616       34.4441623634  TIP3      2264            0.0000000000
     29045      2457  TIP3      OH2           -26.1314117592       35.4756718604       26.5118444634  TIP3      2265            0.0000000000
     29046      2457  TIP3      H1            -25.3919418231       35.7812023339       27.0683344322  TIP3      2265            0.0000000000
     29047      2457  TIP3      H2            -26.4435193987       36.2598912281       26.0218066820  TIP3      2265            0.0000000000
     29048      2458  TIP3      OH2           -31.4305033137       35.3546782105       36.2342518250  TIP3      2266            0.0000000000
     29049      2458  TIP3      H1            -31.5118973991       35.3137664111       35.2604776600  TIP3      2266            0.0000000000
     29050      2458  TIP3      H2            -32.3706470457       35.2819533132       36.4969206620  TIP3      2266            0.0000000000
     29051      2459  TIP3      OH2           -18.8339188543       34.8740505774       21.1449258180  TIP3      2267            0.0000000000
     29052      2459  TIP3      H1            -18.7419940613       35.8046917818       21.3727079394  TIP3      2267            0.0000000000
     29053      2459  TIP3      H2            -17.9280695419       34.5271580137       21.0851399550  TIP3      2267            0.0000000000
     29054      2460  TIP3      OH2           -35.2994157560       31.5304022251       33.4010973717  TIP3      2268            0.0000000000
     29055      2460  TIP3      H1            -36.0730953908       31.6497155445       32.8098814285  TIP3      2268            0.0000000000
     29056      2460  TIP3      H2            -35.6827369834       30.7491067260       33.8622134699  TIP3      2268            0.0000000000
     29057      2461  TIP3      OH2           -35.8438270970       34.5836555637       30.2199443067  TIP3      2269            0.0000000000
     29058      2461  TIP3      H1            -34.9817515191       34.2693772215       30.4742480363  TIP3      2269            0.0000000000
     29059      2461  TIP3      H2            -36.0741117097       35.1738914957       30.9465510381  TIP3      2269            0.0000000000
     29060      2462  TIP3      OH2           -17.9091943149       35.0946513706       36.1599440280  TIP3      2270            0.0000000000
     29061      2462  TIP3      H1            -18.0018172671       34.1325818763       36.0764402535  TIP3      2270            0.0000000000
     29062      2462  TIP3      H2            -18.7776406077       35.3581083562       36.5297704710  TIP3      2270            0.0000000000
     29063      2463  TIP3      OH2           -26.9474515983       34.6452909948       35.0245205241  TIP3      2271            0.0000000000
     29064      2463  TIP3      H1            -26.8400411488       35.4878546369       35.4698546614  TIP3      2271            0.0000000000
     29065      2463  TIP3      H2            -27.8156753875       34.2783846380       35.2607637762  TIP3      2271            0.0000000000
     29066      2464  TIP3      OH2           -20.7411733978       26.5759212083       36.5768160151  TIP3      2272            0.0000000000
     29067      2464  TIP3      H1            -21.2094886664       27.0291516821       35.8603909650  TIP3      2272            0.0000000000
     29068      2464  TIP3      H2            -20.7469464249       25.6538755322       36.2804077983  TIP3      2272            0.0000000000
     29069      2465  TIP3      OH2           -33.5569288293       33.0362314500       34.6530717589  TIP3      2273            0.0000000000
     29070      2465  TIP3      H1            -33.3948854257       32.6014203740       35.5102461493  TIP3      2273            0.0000000000
     29071      2465  TIP3      H2            -34.4018843525       32.6227486612       34.3629741884  TIP3      2273            0.0000000000
     29072      2466  TIP3      OH2           -30.9103151443       21.4560971952       30.5745968313  TIP3      2274            0.0000000000
     29073      2466  TIP3      H1            -31.8065278829       21.3409745293       30.1818882463  TIP3      2274            0.0000000000
     29074      2466  TIP3      H2            -31.0489555408       22.3044677290       31.0183570631  TIP3      2274            0.0000000000
     29075      2467  TIP3      OH2           -26.2921524832       21.1598638039       33.9394173169  TIP3      2275            0.0000000000
     29076      2467  TIP3      H1            -25.8590731331       20.6956770876       34.6848587458  TIP3      2275            0.0000000000
     29077      2467  TIP3      H2            -27.2428631372       20.9571671551       34.0466147556  TIP3      2275            0.0000000000
     29078      2468  TIP3      OH2           -22.9814078618       24.9667605281       34.7975516820  TIP3      2276            0.0000000000
     29079      2468  TIP3      H1            -23.5404307970       24.7555899314       35.5873626326  TIP3      2276            0.0000000000
     29080      2468  TIP3      H2            -23.1650886081       25.8933284480       34.5767218693  TIP3      2276            0.0000000000
     29081      2469  TIP3      OH2           -30.8315068073       26.4218617846       31.7865119194  TIP3      2277            0.0000000000
     29082      2469  TIP3      H1            -31.5650131992       26.4310090554       32.4292720566  TIP3      2277            0.0000000000
     29083      2469  TIP3      H2            -30.8455650025       27.3392413537       31.4277252001  TIP3      2277            0.0000000000
     29084      2470  TIP3      OH2           -30.8495522913       26.5929755922       26.6465286097  TIP3      2278            0.0000000000
     29085      2470  TIP3      H1            -31.7755295390       26.2843340555       26.5205575021  TIP3      2278            0.0000000000
     29086      2470  TIP3      H2            -30.4445954436       26.2111942395       25.8317358765  TIP3      2278            0.0000000000
     29087      2471  TIP3      OH2           -25.3680762197       27.0123263535       25.3666480844  TIP3      2279            0.0000000000
     29088      2471  TIP3      H1            -25.7200158928       27.8877922627       25.0873765705  TIP3      2279            0.0000000000
     29089      2471  TIP3      H2            -24.6128094757       26.9048415461       24.7848067294  TIP3      2279            0.0000000000
     29090      2472  TIP3      OH2           -26.2810215606       27.2446780633       36.8670042597  TIP3      2280            0.0000000000
     29091      2472  TIP3      H1            -26.8011371003       26.4790411584       37.1913146132  TIP3      2280            0.0000000000
     29092      2472  TIP3      H2            -25.4423421016       27.1331146513       37.3468516586  TIP3      2280            0.0000000000
     29093      2473  TIP3      OH2           -24.3112166167       26.5276695408       28.2666388689  TIP3      2281            0.0000000000
     29094      2473  TIP3      H1            -24.5771167774       27.0922086167       27.5226002184  TIP3      2281            0.0000000000
     29095      2473  TIP3      H2            -24.1943472869       25.6790245962       27.7908901886  TIP3      2281            0.0000000000
     29096      2474  TIP3      OH2           -33.1630631637       26.6768647536       33.4899808499  TIP3      2282            0.0000000000
     29097      2474  TIP3      H1            -33.1583006809       27.1071601669       34.3597118750  TIP3      2282            0.0000000000
     29098      2474  TIP3      H2            -33.6555693906       25.8699466074       33.6730970241  TIP3      2282            0.0000000000
     29099      2475  TIP3      OH2           -36.1993034910       24.1007840091       27.2639075932  TIP3      2283            0.0000000000
     29100      2475  TIP3      H1            -35.8436790180       23.7691992229       28.1166769192  TIP3      2283            0.0000000000
     29101      2475  TIP3      H2            -36.0187653509       23.3638855164       26.6832426683  TIP3      2283            0.0000000000
     29102      2476  TIP3      OH2           -34.6335053080       25.0831048274       23.2348974411  TIP3      2284            0.0000000000
     29103      2476  TIP3      H1            -34.5227201332       25.1657871115       22.2774901619  TIP3      2284            0.0000000000
     29104      2476  TIP3      H2            -35.5898911624       25.1922618438       23.2589518150  TIP3      2284            0.0000000000
     29105      2477  TIP3      OH2           -25.1002876718       28.1232817619       32.8402316837  TIP3      2285            0.0000000000
     29106      2477  TIP3      H1            -24.7232061794       27.4415939158       32.2484157964  TIP3      2285            0.0000000000
     29107      2477  TIP3      H2            -25.5605210098       27.5927184590       33.5135165013  TIP3      2285            0.0000000000
     29108      2478  TIP3      OH2           -28.3045758647       24.0902198319       27.6888162892  TIP3      2286            0.0000000000
     29109      2478  TIP3      H1            -29.2396076169       24.1044068001       27.9740047186  TIP3      2286            0.0000000000
     29110      2478  TIP3      H2            -27.8180431355       23.9368318564       28.5080719560  TIP3      2286            0.0000000000
     29111      2479  TIP3      OH2           -33.4835922126       25.6501472497       26.5210042839  TIP3      2287            0.0000000000
     29112      2479  TIP3      H1            -34.3670589115       25.7971389276       26.1350764576  TIP3      2287            0.0000000000
     29113      2479  TIP3      H2            -33.2126317039       24.8001971013       26.1321870525  TIP3      2287            0.0000000000
     29114      2480  TIP3      OH2           -29.8926080860       25.8115225817       24.2618114201  TIP3      2288            0.0000000000
     29115      2480  TIP3      H1            -28.9226277170       25.7330875803       24.3098422800  TIP3      2288            0.0000000000
     29116      2480  TIP3      H2            -30.0440193553       26.3063236662       23.4497638007  TIP3      2288            0.0000000000
     29117      2481  TIP3      OH2           -23.8879433499       23.3269672346       30.9218094856  TIP3      2289            0.0000000000
     29118      2481  TIP3      H1            -24.5829748128       23.3882848047       31.6103041146  TIP3      2289            0.0000000000
     29119      2481  TIP3      H2            -24.3931055202       23.0881986150       30.1323564210  TIP3      2289            0.0000000000
     29120      2482  TIP3      OH2           -33.0275549115       31.4548766376       36.8207312301  TIP3      2290            0.0000000000
     29121      2482  TIP3      H1            -32.3031514567       31.6772557948       37.4386508819  TIP3      2290            0.0000000000
     29122      2482  TIP3      H2            -33.7950220918       31.5479496161       37.4047812322  TIP3      2290            0.0000000000
     29123      2483  TIP3      OH2           -27.0215344517       26.8526201155       29.5613163435  TIP3      2291            0.0000000000
     29124      2483  TIP3      H1            -26.4214700044       26.3201668242       29.0245235013  TIP3      2291            0.0000000000
     29125      2483  TIP3      H2            -27.1541817763       26.3062420929       30.3445383509  TIP3      2291            0.0000000000
     29126      2484  TIP3      OH2           -32.0080582558       23.0252446901       26.0150466064  TIP3      2292            0.0000000000
     29127      2484  TIP3      H1            -32.3221156545       22.1065599948       25.9805177762  TIP3      2292            0.0000000000
     29128      2484  TIP3      H2            -31.2209724531       22.9399253939       25.4568260301  TIP3      2292            0.0000000000
     29129      2485  TIP3      OH2           -28.3993784136       25.1603718225       32.0184259665  TIP3      2293            0.0000000000
     29130      2485  TIP3      H1            -29.2002953649       25.7208249701       32.0541642110  TIP3      2293            0.0000000000
     29131      2485  TIP3      H2            -27.8161234362       25.5530340233       32.6957754208  TIP3      2293            0.0000000000
     29132      2486  TIP3      OH2           -27.8037542903       31.4009761674       23.6673626869  TIP3      2294            0.0000000000
     29133      2486  TIP3      H1            -28.5967666725       30.9440454643       23.3754741547  TIP3      2294            0.0000000000
     29134      2486  TIP3      H2            -27.9881911337       31.5320590744       24.6183657604  TIP3      2294            0.0000000000
     29135      2487  TIP3      OH2           -20.6023047217       30.5849818868       32.4699408173  TIP3      2295            0.0000000000
     29136      2487  TIP3      H1            -20.0362667339       31.1001729537       31.8627950267  TIP3      2295            0.0000000000
     29137      2487  TIP3      H2            -21.4646205666       30.6724628929       32.0128785618  TIP3      2295            0.0000000000
     29138      2488  TIP3      OH2           -26.3238148149       31.6824299777       34.9059697565  TIP3      2296            0.0000000000
     29139      2488  TIP3      H1            -26.6570990203       31.2622842788       35.7074364662  TIP3      2296            0.0000000000
     29140      2488  TIP3      H2            -26.5171567993       32.6216441406       35.0079949133  TIP3      2296            0.0000000000
     29141      2489  TIP3      OH2           -32.6928989387       30.7830190575       29.4536989324  TIP3      2297            0.0000000000
     29142      2489  TIP3      H1            -31.9892467193       30.7304666724       28.7884881560  TIP3      2297            0.0000000000
     29143      2489  TIP3      H2            -32.5914277239       29.9514089018       29.9454234933  TIP3      2297            0.0000000000
     29144      2490  TIP3      OH2           -25.6854559475       32.8788037487       22.6997912128  TIP3      2298            0.0000000000
     29145      2490  TIP3      H1            -25.9936442455       33.7255352362       23.0401527523  TIP3      2298            0.0000000000
     29146      2490  TIP3      H2            -26.4089498160       32.2690455811       22.9478316101  TIP3      2298            0.0000000000
     29147      2491  TIP3      OH2           -35.7152013162       29.1857743633       34.7373692969  TIP3      2299            0.0000000000
     29148      2491  TIP3      H1            -35.4600701416       28.7491357371       35.5724646537  TIP3      2299            0.0000000000
     29149      2491  TIP3      H2            -36.3067632175       28.5496679601       34.3141494258  TIP3      2299            0.0000000000
     29150      2492  TIP3      OH2           -28.6788475967       28.7569941348       36.9176706498  TIP3      2300            0.0000000000
     29151      2492  TIP3      H1            -28.9896825394       28.4634113669       36.0513289250  TIP3      2300            0.0000000000
     29152      2492  TIP3      H2            -27.7486836411       28.4501435927       36.9130786873  TIP3      2300            0.0000000000
     29153      2493  TIP3      OH2           -24.0043670292       34.0744899377       34.8332037235  TIP3      2301            0.0000000000
     29154      2493  TIP3      H1            -24.9157540416       34.2595945731       34.5805742415  TIP3      2301            0.0000000000
     29155      2493  TIP3      H2            -24.0365217298       34.3538777432       35.7735496284  TIP3      2301            0.0000000000
     29156      2494  TIP3      OH2           -18.3300414252       26.3386561469       23.2974169452  TIP3      2302            0.0000000000
     29157      2494  TIP3      H1            -18.8355332795       25.9255793724       22.5736606120  TIP3      2302            0.0000000000
     29158      2494  TIP3      H2            -18.2712006815       27.2410741796       22.9565341786  TIP3      2302            0.0000000000
     29159      2495  TIP3      OH2           -18.3110267276       32.1200458160       36.0608192723  TIP3      2303            0.0000000000
     29160      2495  TIP3      H1            -19.2045039035       32.3578236203       35.7110022280  TIP3      2303            0.0000000000
     29161      2495  TIP3      H2            -17.7833369287       32.0786744940       35.2385338322  TIP3      2303            0.0000000000
     29162      2496  TIP3      OH2           -19.8721153400       34.8770387058       23.8412295305  TIP3      2304            0.0000000000
     29163      2496  TIP3      H1            -20.4643322459       34.1541183115       23.9961999586  TIP3      2304            0.0000000000
     29164      2496  TIP3      H2            -19.7770684011       34.9240995304       22.8663526242  TIP3      2304            0.0000000000
     29165      2497  TIP3      OH2           -22.8213576534       29.9173943276       30.7611052360  TIP3      2305            0.0000000000
     29166      2497  TIP3      H1            -23.7649321797       29.7146976559       30.6445632877  TIP3      2305            0.0000000000
     29167      2497  TIP3      H2            -22.3974435950       29.1500697160       30.3288292028  TIP3      2305            0.0000000000
     29168      2498  TIP3      OH2           -30.2733488775       34.2257411558       26.7673148518  TIP3      2306            0.0000000000
     29169      2498  TIP3      H1            -29.8355555537       35.0719088259       26.6379604786  TIP3      2306            0.0000000000
     29170      2498  TIP3      H2            -31.2001747883       34.4553383898       26.5867343305  TIP3      2306            0.0000000000
     29171      2499  TIP3      OH2           -28.8593172207       31.9218915466       26.3556177044  TIP3      2307            0.0000000000
     29172      2499  TIP3      H1            -29.1769966972       32.8386616998       26.4652387799  TIP3      2307            0.0000000000
     29173      2499  TIP3      H2            -29.5864637093       31.4423614068       26.8082580198  TIP3      2307            0.0000000000
     29174      2500  TIP3      OH2           -28.1905394377       35.8053244166       32.4940909851  TIP3      2308            0.0000000000
     29175      2500  TIP3      H1            -27.9780242469       36.7474865703       32.4161410230  TIP3      2308            0.0000000000
     29176      2500  TIP3      H2            -27.8071383841       35.6367167686       33.3695928892  TIP3      2308            0.0000000000
     29177      2501  TIP3      OH2           -24.8842439924       32.0151244422       32.4355247084  TIP3      2309            0.0000000000
     29178      2501  TIP3      H1            -25.2389373878       31.8662639884       33.3287305854  TIP3      2309            0.0000000000
     29179      2501  TIP3      H2            -24.2313505719       31.3301041090       32.2704758174  TIP3      2309            0.0000000000
     29180      2502  TIP3      OH2           -22.6193615188       33.1411660285       21.5326434825  TIP3      2310            0.0000000000
     29181      2502  TIP3      H1            -22.2649011461       32.6625906361       22.3036199882  TIP3      2310            0.0000000000
     29182      2502  TIP3      H2            -23.5653204721       32.9826073574       21.6051722914  TIP3      2310            0.0000000000
     29183      2503  TIP3      OH2           -34.0224782049       23.9356889054       34.2482107978  TIP3      2311            0.0000000000
     29184      2503  TIP3      H1            -34.9014707390       24.3412966306       34.3115269981  TIP3      2311            0.0000000000
     29185      2503  TIP3      H2            -34.1385540121       23.1183951366       34.7387395534  TIP3      2311            0.0000000000
     29186      2504  TIP3      OH2           -21.8174945954       31.7649064875       23.7712879326  TIP3      2312            0.0000000000
     29187      2504  TIP3      H1            -22.0259388962       30.9675314240       24.2896757364  TIP3      2312            0.0000000000
     29188      2504  TIP3      H2            -20.8566944903       31.8489482395       23.9106708353  TIP3      2312            0.0000000000
     29189      2505  TIP3      OH2           -34.1959300692       35.7384538662       32.6398995828  TIP3      2313            0.0000000000
     29190      2505  TIP3      H1            -34.1507546880       34.7865519836       32.7262047575  TIP3      2313            0.0000000000
     29191      2505  TIP3      H2            -34.2301772607       36.0344325591       33.5618652551  TIP3      2313            0.0000000000
     29192      2506  TIP3      OH2           -25.3326171462       23.7233932691       33.2606726861  TIP3      2314            0.0000000000
     29193      2506  TIP3      H1            -24.5882624146       23.7767124940       33.8729119034  TIP3      2314            0.0000000000
     29194      2506  TIP3      H2            -25.6689372674       22.8235628495       33.4283938400  TIP3      2314            0.0000000000
     29195      2507  TIP3      OH2           -27.3591703318       25.0745592690       25.1340383785  TIP3      2315            0.0000000000
     29196      2507  TIP3      H1            -26.5461332821       25.6060295081       25.1978637067  TIP3      2315            0.0000000000
     29197      2507  TIP3      H2            -27.6170484315       24.8984897251       26.0536738479  TIP3      2315            0.0000000000
     29198      2508  TIP3      OH2           -26.8015498504       26.0243494050       34.3594494324  TIP3      2316            0.0000000000
     29199      2508  TIP3      H1            -26.6822842095       26.6348028187       35.1175003665  TIP3      2316            0.0000000000
     29200      2508  TIP3      H2            -26.0935917906       25.3738277132       34.4325703730  TIP3      2316            0.0000000000
     29201      2509  TIP3      OH2           -26.3963869901       22.1099491512       26.0844230229  TIP3      2317            0.0000000000
     29202      2509  TIP3      H1            -26.8393802775       22.7467721042       26.6700481528  TIP3      2317            0.0000000000
     29203      2509  TIP3      H2            -25.7770975882       22.6920553063       25.6239608635  TIP3      2317            0.0000000000
     29204      2510  TIP3      OH2           -20.5953894454       23.9307817874       35.1917501847  TIP3      2318            0.0000000000
     29205      2510  TIP3      H1            -21.5254063824       24.2396926972       35.0607176350  TIP3      2318            0.0000000000
     29206      2510  TIP3      H2            -20.2928514257       23.9158715712       34.2668424642  TIP3      2318            0.0000000000
     29207      2511  TIP3      OH2           -21.9943801448       27.7180127511       29.2154450627  TIP3      2319            0.0000000000
     29208      2511  TIP3      H1            -22.8074183907       27.2658136712       28.9188152833  TIP3      2319            0.0000000000
     29209      2511  TIP3      H2            -21.5109268734       27.0236899759       29.7170330068  TIP3      2319            0.0000000000
     29210      2512  TIP3      OH2           -33.3924849693       21.0832258178       29.6399133334  TIP3      2320            0.0000000000
     29211      2512  TIP3      H1            -33.6262331567       21.1215698394       28.6847552957  TIP3      2320            0.0000000000
     29212      2512  TIP3      H2            -33.8431428762       20.2548199744       29.9058981590  TIP3      2320            0.0000000000
     29213      2513  TIP3      OH2           -34.4522257758       35.0302657535       25.8060115392  TIP3      2321            0.0000000000
     29214      2513  TIP3      H1            -35.3175806585       35.4436485648       25.7915451847  TIP3      2321            0.0000000000
     29215      2513  TIP3      H2            -33.9586334110       35.5038742643       25.1300628515  TIP3      2321            0.0000000000
     29216      2514  TIP3      OH2           -30.3139466212       36.3034126700       38.9513819847  TIP3      2322            0.0000000000
     29217      2514  TIP3      H1            -29.4688599562       35.8738183642       39.0944528168  TIP3      2322            0.0000000000
     29218      2514  TIP3      H2            -30.4203574845       36.1437890546       37.9890876223  TIP3      2322            0.0000000000
     29219      2515  TIP3      OH2           -24.0370257588       34.6454217378       37.3392367411  TIP3      2323            0.0000000000
     29220      2515  TIP3      H1            -24.4694188407       33.9220989696       37.8157021796  TIP3      2323            0.0000000000
     29221      2515  TIP3      H2            -23.3749754598       34.9815100143       37.9509022371  TIP3      2323            0.0000000000
     29222      2516  TIP3      OH2           -21.9000403152       35.8855206181       20.3247211089  TIP3      2324            0.0000000000
     29223      2516  TIP3      H1            -21.6228462865       35.0787138642       20.7910414714  TIP3      2324            0.0000000000
     29224      2516  TIP3      H2            -21.1477408458       36.0648715038       19.7767101693  TIP3      2324            0.0000000000
     29225      2517  TIP3      OH2           -35.4102676962       31.4017654238       38.1064310990  TIP3      2325            0.0000000000
     29226      2517  TIP3      H1            -35.1603488755       30.5357812652       37.7340292044  TIP3      2325            0.0000000000
     29227      2517  TIP3      H2            -36.0811629593       31.7181068033       37.4901483780  TIP3      2325            0.0000000000
     29228      2518  TIP3      OH2           -28.6231618542       31.4139830412       37.4561753077  TIP3      2326            0.0000000000
     29229      2518  TIP3      H1            -28.9833436503       31.7219783063       36.6048330914  TIP3      2326            0.0000000000
     29230      2518  TIP3      H2            -28.5541529423       30.4344982903       37.3559680751  TIP3      2326            0.0000000000
     29231      2519  TIP3      OH2           -22.9387863190       31.2829162244       34.8924294072  TIP3      2327            0.0000000000
     29232      2519  TIP3      H1            -22.1657941060       31.8769816022       34.7787838573  TIP3      2327            0.0000000000
     29233      2519  TIP3      H2            -23.6398505957       31.9549591259       34.9042204304  TIP3      2327            0.0000000000
     29234      2520  TIP3      OH2           -34.4897611322       28.6761919682       37.4678611958  TIP3      2328            0.0000000000
     29235      2520  TIP3      H1            -34.0267447762       27.8227766243       37.3825481366  TIP3      2328            0.0000000000
     29236      2520  TIP3      H2            -34.6678834062       28.6780209577       38.4221063390  TIP3      2328            0.0000000000
     29237      2521  TIP3      OH2           -30.5333235469       27.5883099268       34.8405458194  TIP3      2329            0.0000000000
     29238      2521  TIP3      H1            -31.1342781866       28.3072692501       35.1038578990  TIP3      2329            0.0000000000
     29239      2521  TIP3      H2            -30.1460827722       27.9755025693       34.0313568618  TIP3      2329            0.0000000000
     29240      2522  TIP3      OH2           -25.4678330481       30.1809211348       38.2359095683  TIP3      2330            0.0000000000
     29241      2522  TIP3      H1            -24.5125531679       30.1747133852       38.0615850325  TIP3      2330            0.0000000000
     29242      2522  TIP3      H2            -25.6285553328       29.3939430044       38.7781282389  TIP3      2330            0.0000000000
     29243      2523  TIP3      OH2           -30.0691995516       24.9583960522       35.8708941666  TIP3      2331            0.0000000000
     29244      2523  TIP3      H1            -30.0596796476       24.3368884812       35.1412376072  TIP3      2331            0.0000000000
     29245      2523  TIP3      H2            -30.2053986579       25.8123064188       35.3872849369  TIP3      2331            0.0000000000
     29246      2524  TIP3      OH2           -29.7266401294       23.3593751508       33.4727993445  TIP3      2332            0.0000000000
     29247      2524  TIP3      H1            -29.2224609259       23.8371435802       32.7552093000  TIP3      2332            0.0000000000
     29248      2524  TIP3      H2            -30.6140257870       23.2929510061       33.0266524899  TIP3      2332            0.0000000000
     29249      2525  TIP3      OH2           -28.1904204997       28.8501946801       33.6854620419  TIP3      2333            0.0000000000
     29250      2525  TIP3      H1            -27.4346941396       28.6923946243       33.1106764502  TIP3      2333            0.0000000000
     29251      2525  TIP3      H2            -28.5505982483       29.6897107796       33.3563568193  TIP3      2333            0.0000000000
     29252      2526  TIP3      OH2           -23.7925921611       26.6036700660       38.6493651529  TIP3      2334            0.0000000000
     29253      2526  TIP3      H1            -23.5706074034       25.6635952807       38.5695607692  TIP3      2334            0.0000000000
     29254      2526  TIP3      H2            -22.9223690621       27.0330522705       38.6637567563  TIP3      2334            0.0000000000
     29255      2527  TIP3      OH2           -22.4539664750       29.4119960117       36.8293160204  TIP3      2335            0.0000000000
     29256      2527  TIP3      H1            -22.7114907695       30.1272914152       36.2061022172  TIP3      2335            0.0000000000
     29257      2527  TIP3      H2            -21.5050210509       29.3870259432       36.6048440155  TIP3      2335            0.0000000000
     29258      2528  TIP3      OH2           -31.6783534198       26.2213397408       37.8430908051  TIP3      2336            0.0000000000
     29259      2528  TIP3      H1            -32.4730936611       25.6765524906       37.6409281093  TIP3      2336            0.0000000000
     29260      2528  TIP3      H2            -31.0476639862       25.8971311826       37.1807908471  TIP3      2336            0.0000000000
     29261      2529  TIP3      OH2           -29.0057045816       20.8591626490       33.9285823794  TIP3      2337            0.0000000000
     29262      2529  TIP3      H1            -29.1017241895       21.7807977502       33.6127815736  TIP3      2337            0.0000000000
     29263      2529  TIP3      H2            -29.6596433771       20.4252386263       33.3304102811  TIP3      2337            0.0000000000
     29264      2530  TIP3      OH2           -27.6640274721       25.0669846834       37.4525054955  TIP3      2338            0.0000000000
     29265      2530  TIP3      H1            -27.9697892184       24.9449291364       38.3731638719  TIP3      2338            0.0000000000
     29266      2530  TIP3      H2            -28.4811951033       25.0046033461       36.9306682354  TIP3      2338            0.0000000000
     29267      2531  TIP3      OH2           -24.9639363524       24.2491705690       36.5086629201  TIP3      2339            0.0000000000
     29268      2531  TIP3      H1            -25.9105661156       24.3473618042       36.6796955594  TIP3      2339            0.0000000000
     29269      2531  TIP3      H2            -24.6641687729       23.6559185371       37.2243334046  TIP3      2339            0.0000000000
     29270      2532  TIP3      OH2           -23.3871448875       22.9081853719       38.4572092131  TIP3      2340            0.0000000000
     29271      2532  TIP3      H1            -23.4192208301       21.9317548280       38.4859059164  TIP3      2340            0.0000000000
     29272      2532  TIP3      H2            -23.6354673402       23.1980634613       39.3667065680  TIP3      2340            0.0000000000
     29273      2533  TIP3      OH2           -33.4324719940       24.1491679311       37.5892483812  TIP3      2341            0.0000000000
     29274      2533  TIP3      H1            -33.3330062980       23.4115303508       36.9751037104  TIP3      2341            0.0000000000
     29275      2533  TIP3      H2            -33.6539768725       23.7287004227       38.4518428346  TIP3      2341            0.0000000000
     29276      2534  TIP3      OH2           -28.6999780286       20.2413503246       36.4974112654  TIP3      2342            0.0000000000
     29277      2534  TIP3      H1            -28.0657911777       19.4776483754       36.5655922376  TIP3      2342            0.0000000000
     29278      2534  TIP3      H2            -28.8183846776       20.2128264867       35.5243454460  TIP3      2342            0.0000000000
     29279      2535  TIP3      OH2           -28.3613608244       21.8199768589       38.6057559334  TIP3      2343            0.0000000000
     29280      2535  TIP3      H1            -28.5335616180       21.2411051698       37.8359328565  TIP3      2343            0.0000000000
     29281      2535  TIP3      H2            -28.9694357058       22.5866482519       38.5815087804  TIP3      2343            0.0000000000
     29282      2536  TIP3      OH2           -35.3533020979       32.8367487240       21.8928861989  TIP3      2344            0.0000000000
     29283      2536  TIP3      H1            -34.5484968404       33.3753919330       21.6771431402  TIP3      2344            0.0000000000
     29284      2536  TIP3      H2            -35.3938837920       32.6350648103       20.9229361330  TIP3      2344            0.0000000000
     29285      2537  TIP3      OH2           -20.1717335585       32.9314837581       38.6769944854  TIP3      2345            0.0000000000
     29286      2537  TIP3      H1            -21.0673267307       32.8986960366       39.0718454655  TIP3      2345            0.0000000000
     29287      2537  TIP3      H2            -19.7858620991       33.7247633668       39.1225721720  TIP3      2345            0.0000000000
     29288      2538  TIP3      OH2           -18.8790362388       31.2369277460       24.1040040642  TIP3      2346            0.0000000000
     29289      2538  TIP3      H1            -18.0209130158       31.6485623683       24.2874009027  TIP3      2346            0.0000000000
     29290      2538  TIP3      H2            -18.8747223916       30.5182408191       24.7675814743  TIP3      2346            0.0000000000
     29291      2539  TIP3      OH2           -18.4869731133       29.3364560768       25.9842812255  TIP3      2347            0.0000000000
     29292      2539  TIP3      H1            -19.2457711645       28.8372063680       26.3659987492  TIP3      2347            0.0000000000
     29293      2539  TIP3      H2            -17.9069191406       29.4765254301       26.7576741418  TIP3      2347            0.0000000000
     29294      2540  TIP3      OH2           -18.7282725203       32.0166684539       31.0160176493  TIP3      2348            0.0000000000
     29295      2540  TIP3      H1            -17.9208231330       31.6636597087       30.6061480892  TIP3      2348            0.0000000000
     29296      2540  TIP3      H2            -18.6247756169       32.9777462227       30.8321542878  TIP3      2348            0.0000000000
     29297      2541  TIP3      OH2           -20.2144961293       34.8517730368       33.3498105136  TIP3      2349            0.0000000000
     29298      2541  TIP3      H1            -20.9344058500       35.3187836016       33.7940524260  TIP3      2349            0.0000000000
     29299      2541  TIP3      H2            -20.7404838422       34.5990569486       32.5590833853  TIP3      2349            0.0000000000
     29300      2542  TIP3      OH2           -20.6590448273       27.8171191671       26.5838182824  TIP3      2350            0.0000000000
     29301      2542  TIP3      H1            -20.8423399440       26.8625287020       26.5098520926  TIP3      2350            0.0000000000
     29302      2542  TIP3      H2            -21.0299110888       28.0292759401       27.4574614963  TIP3      2350            0.0000000000
     29303      2543  TIP3      OH2           -35.6606696430       29.8869066422       30.5469903208  TIP3      2351            0.0000000000
     29304      2543  TIP3      H1            -35.4607366641       29.8402803639       29.5880523217  TIP3      2351            0.0000000000
     29305      2543  TIP3      H2            -34.7840918974       29.7686776001       30.9715365370  TIP3      2351            0.0000000000
     29306      2544  TIP3      OH2           -19.8329197077       29.7839386979       36.2693406661  TIP3      2352            0.0000000000
     29307      2544  TIP3      H1            -19.2201428640       29.0254600442       36.3841074137  TIP3      2352            0.0000000000
     29308      2544  TIP3      H2            -19.2284013788       30.5551813362       36.2515616931  TIP3      2352            0.0000000000
     29309      2545  TIP3      OH2           -18.3341189290       27.6705417988       36.9068291864  TIP3      2353            0.0000000000
     29310      2545  TIP3      H1            -19.2104771258       27.2633129286       36.7403162098  TIP3      2353            0.0000000000
     29311      2545  TIP3      H2            -17.7556790638       26.8928790528       36.8308329105  TIP3      2353            0.0000000000
     29312      2546  TIP3      OH2           -21.0292924369       25.3782968746       25.0651896377  TIP3      2354            0.0000000000
     29313      2546  TIP3      H1            -20.7072380588       24.4577613208       25.1397968874  TIP3      2354            0.0000000000
     29314      2546  TIP3      H2            -20.2532164258       25.8022976799       24.6651295997  TIP3      2354            0.0000000000
     29315      2547  TIP3      OH2           -20.3831352791       25.9404285087       30.4668263221  TIP3      2355            0.0000000000
     29316      2547  TIP3      H1            -19.4231897072       26.1733871072       30.4517436955  TIP3      2355            0.0000000000
     29317      2547  TIP3      H2            -20.5731107629       26.0812023559       31.4065964648  TIP3      2355            0.0000000000
     29318      2548  TIP3      OH2           -20.3159491419       26.6636788943       33.2442511055  TIP3      2356            0.0000000000
     29319      2548  TIP3      H1            -21.1945111449       26.9519530126       33.5756193289  TIP3      2356            0.0000000000
     29320      2548  TIP3      H2            -19.8829006534       27.5241332414       33.0265473422  TIP3      2356            0.0000000000
     29321      2549  TIP3      OH2           -35.8065706483       24.9885047066       36.7080939016  TIP3      2357            0.0000000000
     29322      2549  TIP3      H1            -34.9323319521       24.9338716220       37.1196189841  TIP3      2357            0.0000000000
     29323      2549  TIP3      H2            -36.3946220130       24.4003254102       37.2392092470  TIP3      2357            0.0000000000
     29324      2550  TIP3      OH2           -18.0369392969       20.7164202265       38.5855241764  TIP3      2358            0.0000000000
     29325      2550  TIP3      H1            -17.6906834616       20.0449739312       37.9789987533  TIP3      2358            0.0000000000
     29326      2550  TIP3      H2            -17.9348356464       21.5359537451       38.0676176841  TIP3      2358            0.0000000000
     29327      2551  TIP3      OH2           -20.3601103025       22.6625481929       25.0856363104  TIP3      2359            0.0000000000
     29328      2551  TIP3      H1            -20.1246501374       22.2257761745       25.9323970134  TIP3      2359            0.0000000000
     29329      2551  TIP3      H2            -20.9685760447       22.0689069685       24.6329532285  TIP3      2359            0.0000000000
     29330      2552  TIP3      OH2           -34.8306577838       23.4525744267       29.5771948449  TIP3      2360            0.0000000000
     29331      2552  TIP3      H1            -34.3604674734       22.6597704597       29.8888458047  TIP3      2360            0.0000000000
     29332      2552  TIP3      H2            -34.3341798867       24.1574673871       30.0253784780  TIP3      2360            0.0000000000
     29333      2553  TIP3      OH2           -36.0042593650       27.2188434767       31.0241951400  TIP3      2361            0.0000000000
     29334      2553  TIP3      H1            -35.9966654376       26.7917357183       30.1394995626  TIP3      2361            0.0000000000
     29335      2553  TIP3      H2            -35.9342962765       28.1325972653       30.7534519782  TIP3      2361            0.0000000000
     29336      2554  TIP3      OH2           -18.5235094935       22.8230800274       36.9494225196  TIP3      2362            0.0000000000
     29337      2554  TIP3      H1            -19.4648381434       23.0887835041       36.9102890690  TIP3      2362            0.0000000000
     29338      2554  TIP3      H2            -18.4863047893       22.2743380511       36.1505587291  TIP3      2362            0.0000000000
     29339      2555  TIP3      OH2           -35.7087806086       22.6829603305       24.3362027954  TIP3      2363            0.0000000000
     29340      2555  TIP3      H1            -36.6524978840       22.8831643333       24.5243050564  TIP3      2363            0.0000000000
     29341      2555  TIP3      H2            -35.4423565169       23.4694868103       23.8535113469  TIP3      2363            0.0000000000
     29342      2556  TIP3      OH2            37.0230696163       21.3826179690       33.2036668729  TIP3      2364            0.0000000000
     29343      2556  TIP3      H1             36.1448293654       21.1454211891       33.5594807884  TIP3      2364            0.0000000000
     29344      2556  TIP3      H2             36.5922338764       21.9143677788       32.4989225550  TIP3      2364            0.0000000000
     29345      2557  TIP3      OH2           -34.0848895160       34.7011078942       37.2061589569  TIP3      2365            0.0000000000
     29346      2557  TIP3      H1            -34.9455108669       34.7952357350       36.7899581791  TIP3      2365            0.0000000000
     29347      2557  TIP3      H2            -34.2978399371       34.4943945847       38.1211983110  TIP3      2365            0.0000000000
     29348      2558  TIP3      OH2           -31.0518978419       35.6220059588       33.5715716403  TIP3      2366            0.0000000000
     29349      2558  TIP3      H1            -31.5410493855       36.3689856151       33.1857357713  TIP3      2366            0.0000000000
     29350      2558  TIP3      H2            -30.2004969598       35.6044898409       33.1182939432  TIP3      2366            0.0000000000
     29351      2559  TIP3      OH2           -19.5066561601       20.9123993003       34.7958635703  TIP3      2367            0.0000000000
     29352      2559  TIP3      H1            -20.3338510734       21.2127185995       34.3804579610  TIP3      2367            0.0000000000
     29353      2559  TIP3      H2            -19.3334808478       20.0958128540       34.2709968578  TIP3      2367            0.0000000000
     29354      2560  TIP3      OH2           -31.8804487238       35.9304342405       28.8490387342  TIP3      2368            0.0000000000
     29355      2560  TIP3      H1            -32.3650401913       35.2201069742       29.3136419672  TIP3      2368            0.0000000000
     29356      2560  TIP3      H2            -31.3644732822       36.3230021876       29.5709410732  TIP3      2368            0.0000000000
     29357      2561  TIP3      OH2           -26.1113697992       22.3450242224       29.0663387849  TIP3      2369            0.0000000000
     29358      2561  TIP3      H1            -26.7915930318       21.7073348322       29.3435567946  TIP3      2369            0.0000000000
     29359      2561  TIP3      H2            -25.5541133161       21.8089325659       28.4928734733  TIP3      2369            0.0000000000
     29360      2562  TIP3      OH2           -20.9769654422       20.3935303814       29.1519019307  TIP3      2370            0.0000000000
     29361      2562  TIP3      H1            -20.3684531591       20.9902776433       28.6495497496  TIP3      2370            0.0000000000
     29362      2562  TIP3      H2            -21.8585217886       20.7501407696       28.9199439906  TIP3      2370            0.0000000000
     29363      2563  TIP3      OH2           -19.3011387977       21.6305088505       27.4378036013  TIP3      2371            0.0000000000
     29364      2563  TIP3      H1            -18.6060497607       21.0654369706       27.0267109556  TIP3      2371            0.0000000000
     29365      2563  TIP3      H2            -18.8135135190       22.4775544429       27.5620149356  TIP3      2371            0.0000000000
     29366      2564  TIP3      OH2           -33.7535949703       20.9597295217       26.9737012701  TIP3      2372            0.0000000000
     29367      2564  TIP3      H1            -34.5281730080       20.7484652285       26.4061593135  TIP3      2372            0.0000000000
     29368      2564  TIP3      H2            -33.2431432215       20.1360829677       26.8517871129  TIP3      2372            0.0000000000
     29369      2565  TIP3      OH2           -34.9643831277       20.7106100533       22.6165336829  TIP3      2373            0.0000000000
     29370      2565  TIP3      H1            -34.4689797144       21.3618356991       22.1180795757  TIP3      2373            0.0000000000
     29371      2565  TIP3      H2            -35.5009704979       21.2493336002       23.2220846993  TIP3      2373            0.0000000000
     29372      2566  TIP3      OH2           -29.2408420247       20.8770117031       26.7250146022  TIP3      2374            0.0000000000
     29373      2566  TIP3      H1            -28.3637587019       21.2845890887       26.6268025827  TIP3      2374            0.0000000000
     29374      2566  TIP3      H2            -29.2856596943       20.6774329319       27.6584801649  TIP3      2374            0.0000000000
     29375      2567  TIP3      OH2           -23.5692429272       20.9123556801       28.3560503719  TIP3      2375            0.0000000000
     29376      2567  TIP3      H1            -23.6203656036       21.0222210940       27.3987097387  TIP3      2375            0.0000000000
     29377      2567  TIP3      H2            -23.9405104306       20.0024332942       28.4857044150  TIP3      2375            0.0000000000
     29378      2568  TIP3      OH2           -33.9260883103       21.4786297173       36.3891525067  TIP3      2376            0.0000000000
     29379      2568  TIP3      H1            -34.1919834699       20.6611325116       36.8575874185  TIP3      2376            0.0000000000
     29380      2568  TIP3      H2            -33.0004913449       21.4788676304       36.7418586478  TIP3      2376            0.0000000000
     29381      2569  TIP3      OH2           -31.8560135202       20.8728361729       37.9515262288  TIP3      2377            0.0000000000
     29382      2569  TIP3      H1            -30.9664775767       20.4975922650       37.8257663581  TIP3      2377            0.0000000000
     29383      2569  TIP3      H2            -32.2482618155       20.1121628884       38.4402875033  TIP3      2377            0.0000000000
     29384      2570  TIP3      OH2           -23.4500982650       20.1823315763       38.1718961246  TIP3      2378            0.0000000000
     29385      2570  TIP3      H1            -23.3525778198       19.7058009787       39.0175322109  TIP3      2378            0.0000000000
     29386      2570  TIP3      H2            -22.5345202814       20.1524114534       37.8247929779  TIP3      2378            0.0000000000
     29387      2571  TIP3      OH2           -20.4082869804      -36.8375888920       37.0173041123  TIP3      2379            0.0000000000
     29388      2571  TIP3      H1            -21.0213212617      -36.9779556437       36.2861352976  TIP3      2379            0.0000000000
     29389      2571  TIP3      H2            -20.2836271934      -35.8783884784       36.9671564184  TIP3      2379            0.0000000000
     29390      2572  TIP3      OH2            -5.8355421426       30.0863857593       26.8343717833  TIP3      2380            0.0000000000
     29391      2572  TIP3      H1             -5.7899637667       31.0682455848       26.7391950289  TIP3      2380            0.0000000000
     29392      2572  TIP3      H2             -6.5238724930       29.8728505408       26.1897666222  TIP3      2380            0.0000000000
     29393      2573  TIP3      OH2            -6.9396987459       29.3599565737       30.2971359894  TIP3      2381            0.0000000000
     29394      2573  TIP3      H1             -6.9481464813       28.7036467598       31.0046107437  TIP3      2381            0.0000000000
     29395      2573  TIP3      H2             -7.2799219720       28.8634253218       29.5336120299  TIP3      2381            0.0000000000
     29396      2574  TIP3      OH2           -14.5878109407       29.0341258935       31.8438117172  TIP3      2382            0.0000000000
     29397      2574  TIP3      H1            -14.5051429307       28.3536256807       32.5451197818  TIP3      2382            0.0000000000
     29398      2574  TIP3      H2            -13.8410862334       29.6090438890       32.0639859651  TIP3      2382            0.0000000000
     29399      2575  TIP3      OH2            -3.2388912568       32.2899301026       28.5780005355  TIP3      2383            0.0000000000
     29400      2575  TIP3      H1             -3.6676061821       31.5793572812       29.0649176304  TIP3      2383            0.0000000000
     29401      2575  TIP3      H2             -3.2181156531       33.0070920272       29.2271610941  TIP3      2383            0.0000000000
     29402      2576  TIP3      OH2           -13.6461764959       33.4860041820       30.3788202113  TIP3      2384            0.0000000000
     29403      2576  TIP3      H1            -13.9803536787       32.6334592303       30.0325303623  TIP3      2384            0.0000000000
     29404      2576  TIP3      H2            -12.6936835696       33.2935255003       30.3861017600  TIP3      2384            0.0000000000
     29405      2577  TIP3      OH2           -17.0068781804       27.0647312896       25.8268449125  TIP3      2385            0.0000000000
     29406      2577  TIP3      H1            -17.4780849132       27.9174386808       25.7782526610  TIP3      2385            0.0000000000
     29407      2577  TIP3      H2            -17.5682873805       26.5100204973       25.2683358463  TIP3      2385            0.0000000000
     29408      2578  TIP3      OH2           -16.3167704061       29.2691265768       27.9535092665  TIP3      2386            0.0000000000
     29409      2578  TIP3      H1            -16.0492708009       28.4531630632       28.4138679279  TIP3      2386            0.0000000000
     29410      2578  TIP3      H2            -15.6015524297       29.3787313772       27.3126689063  TIP3      2386            0.0000000000
     29411      2579  TIP3      OH2            -8.5809748806       31.7465485548       30.7613156259  TIP3      2387            0.0000000000
     29412      2579  TIP3      H1             -8.2293665050       31.1326070815       30.0986079083  TIP3      2387            0.0000000000
     29413      2579  TIP3      H2             -7.7728904044       31.9355607150       31.2687330679  TIP3      2387            0.0000000000
     29414      2580  TIP3      OH2             0.0171303981       23.4352880818       31.4917973532  TIP3      2388            0.0000000000
     29415      2580  TIP3      H1              0.2131163113       24.0127895547       32.2563584667  TIP3      2388            0.0000000000
     29416      2580  TIP3      H2              0.5943220808       23.8367169870       30.8221060402  TIP3      2388            0.0000000000
     29417      2581  TIP3      OH2            -5.3655835692       26.2295906205       31.0802439859  TIP3      2389            0.0000000000
     29418      2581  TIP3      H1             -5.2452446537       25.2634705166       31.0629475976  TIP3      2389            0.0000000000
     29419      2581  TIP3      H2             -5.5096111265       26.3781434984       30.1208282292  TIP3      2389            0.0000000000
     29420      2582  TIP3      OH2           -12.2835077815       24.3170902266       28.2890305316  TIP3      2390            0.0000000000
     29421      2582  TIP3      H1            -12.1814475114       25.1567053675       27.8045881463  TIP3      2390            0.0000000000
     29422      2582  TIP3      H2            -12.6861105869       23.7473439152       27.5969128717  TIP3      2390            0.0000000000
     29423      2583  TIP3      OH2            -4.5431699512       24.3997371309       26.6850582645  TIP3      2391            0.0000000000
     29424      2583  TIP3      H1             -3.8707693967       24.0987141945       27.3400698380  TIP3      2391            0.0000000000
     29425      2583  TIP3      H2             -4.0080654610       24.9720458241       26.1127084212  TIP3      2391            0.0000000000
     29426      2584  TIP3      OH2           -15.6590300687       26.7290103558       29.0271574804  TIP3      2392            0.0000000000
     29427      2584  TIP3      H1            -14.9882119450       26.1807233959       29.4768494057  TIP3      2392            0.0000000000
     29428      2584  TIP3      H2            -15.5601532807       26.4172510585       28.1135042164  TIP3      2392            0.0000000000
     29429      2585  TIP3      OH2           -10.5039919988       28.2836044740       28.3467442926  TIP3      2393            0.0000000000
     29430      2585  TIP3      H1             -9.8321142218       27.7032957116       28.7429959994  TIP3      2393            0.0000000000
     29431      2585  TIP3      H2            -11.0186263777       27.6271265557       27.8372861636  TIP3      2393            0.0000000000
     29432      2586  TIP3      OH2             0.4403612465       24.8187511725       33.7678050599  TIP3      2394            0.0000000000
     29433      2586  TIP3      H1             -0.0957553966       25.6205792635       33.6448617786  TIP3      2394            0.0000000000
     29434      2586  TIP3      H2              0.5606558234       24.7361157259       34.7244003517  TIP3      2394            0.0000000000
     29435      2587  TIP3      OH2           -13.3817695472       23.2187901387       32.3328593985  TIP3      2395            0.0000000000
     29436      2587  TIP3      H1            -13.6604259496       23.7874444514       31.5847632714  TIP3      2395            0.0000000000
     29437      2587  TIP3      H2            -14.0614707573       23.4494493104       33.0121203371  TIP3      2395            0.0000000000
     29438      2588  TIP3      OH2            -6.1411279147       32.6614550441       25.9162051723  TIP3      2396            0.0000000000
     29439      2588  TIP3      H1             -6.3027686237       32.4534004140       24.9863154825  TIP3      2396            0.0000000000
     29440      2588  TIP3      H2             -6.3630859532       33.6141194382       25.9289484097  TIP3      2396            0.0000000000
     29441      2589  TIP3      OH2           -10.8626653735       30.8456583578       32.5885635912  TIP3      2397            0.0000000000
     29442      2589  TIP3      H1            -11.5721506735       31.4919044222       32.7894761688  TIP3      2397            0.0000000000
     29443      2589  TIP3      H2            -10.1573886383       31.4405400323       32.2897429024  TIP3      2397            0.0000000000
     29444      2590  TIP3      OH2            -2.7397120679       23.7439602643       28.6523932369  TIP3      2398            0.0000000000
     29445      2590  TIP3      H1             -2.9594458189       22.9832589616       29.1977506085  TIP3      2398            0.0000000000
     29446      2590  TIP3      H2             -2.0650275242       24.1872165189       29.1924490071  TIP3      2398            0.0000000000
     29447      2591  TIP3      OH2           -13.8142028107       25.0770462256       30.3564249614  TIP3      2399            0.0000000000
     29448      2591  TIP3      H1            -13.1838653069       25.7620346250       30.6733080879  TIP3      2399            0.0000000000
     29449      2591  TIP3      H2            -13.2949987208       24.6627923597       29.6222824439  TIP3      2399            0.0000000000
     29450      2592  TIP3      OH2           -12.4036267467       32.8618433439       33.3841860545  TIP3      2400            0.0000000000
     29451      2592  TIP3      H1            -12.4649249959       33.7646460169       33.0311269366  TIP3      2400            0.0000000000
     29452      2592  TIP3      H2            -13.2927472500       32.7758052470       33.8128727994  TIP3      2400            0.0000000000
     29453      2593  TIP3      OH2           -16.3510026714       32.5302908723       24.1696827210  TIP3      2401            0.0000000000
     29454      2593  TIP3      H1            -16.6157713837       32.8144444622       23.2772852497  TIP3      2401            0.0000000000
     29455      2593  TIP3      H2            -16.2770356337       33.3612439083       24.6763645445  TIP3      2401            0.0000000000
     29456      2594  TIP3      OH2            -2.7110598662       34.1824356116       31.0269429308  TIP3      2402            0.0000000000
     29457      2594  TIP3      H1             -3.7020392309       34.2230220702       31.0695183807  TIP3      2402            0.0000000000
     29458      2594  TIP3      H2             -2.4579870916       35.0503201639       30.6819891915  TIP3      2402            0.0000000000
     29459      2595  TIP3      OH2            -2.3857986149       22.5108165520       32.4146338859  TIP3      2403            0.0000000000
     29460      2595  TIP3      H1             -3.1568520871       23.0483155436       32.1997729146  TIP3      2403            0.0000000000
     29461      2595  TIP3      H2             -1.7011760729       22.8383597212       31.7921727483  TIP3      2403            0.0000000000
     29462      2596  TIP3      OH2            -9.4330081846       20.5503356366       29.7956471735  TIP3      2404            0.0000000000
     29463      2596  TIP3      H1             -9.5737603962       19.5856756375       29.7243622951  TIP3      2404            0.0000000000
     29464      2596  TIP3      H2            -10.3110987715       20.8572300871       30.0994026911  TIP3      2404            0.0000000000
     29465      2597  TIP3      OH2            -4.4346431906       35.6216270435       27.3703725151  TIP3      2405            0.0000000000
     29466      2597  TIP3      H1             -3.8786289424       35.0183401457       26.8457596273  TIP3      2405            0.0000000000
     29467      2597  TIP3      H2             -4.0653933559       36.4621852097       27.0900237361  TIP3      2405            0.0000000000
     29468      2598  TIP3      OH2            -3.1632844547       33.7579397649       25.9986944168  TIP3      2406            0.0000000000
     29469      2598  TIP3      H1             -3.6197165406       33.1273814587       25.4256780903  TIP3      2406            0.0000000000
     29470      2598  TIP3      H2             -3.2385826518       33.3396325028       26.8783891605  TIP3      2406            0.0000000000
     29471      2599  TIP3      OH2            -1.6395881980       32.4987708150       34.5546207779  TIP3      2407            0.0000000000
     29472      2599  TIP3      H1             -1.5034606781       31.8021005422       33.8661785251  TIP3      2407            0.0000000000
     29473      2599  TIP3      H2             -1.3895607429       33.2930879774       34.0826703568  TIP3      2407            0.0000000000
     29474      2600  TIP3      OH2            -7.1478500203       29.3476349811       24.3206099365  TIP3      2408            0.0000000000
     29475      2600  TIP3      H1             -7.8544260455       29.9192763265       23.9636322920  TIP3      2408            0.0000000000
     29476      2600  TIP3      H2             -6.4238379355       29.4313563365       23.6704847172  TIP3      2408            0.0000000000
     29477      2601  TIP3      OH2             0.2288942344       28.7481522503       32.5862477155  TIP3      2409            0.0000000000
     29478      2601  TIP3      H1             -0.4043948713       29.4944697917       32.6234123721  TIP3      2409            0.0000000000
     29479      2601  TIP3      H2              0.7418790798       28.9937846320       31.7862622545  TIP3      2409            0.0000000000
     29480      2602  TIP3      OH2            -3.6750722735       29.5606520859       25.2344717694  TIP3      2410            0.0000000000
     29481      2602  TIP3      H1             -4.4252092382       29.8114698059       25.8228357317  TIP3      2410            0.0000000000
     29482      2602  TIP3      H2             -3.2321549105       28.8818019842       25.7654177641  TIP3      2410            0.0000000000
     29483      2603  TIP3      OH2            -3.7581004207       27.6924705817       34.3697820575  TIP3      2411            0.0000000000
     29484      2603  TIP3      H1             -3.7723218290       28.5432526289       34.8614278746  TIP3      2411            0.0000000000
     29485      2603  TIP3      H2             -4.3939605093       27.9962575754       33.6705074115  TIP3      2411            0.0000000000
     29486      2604  TIP3      OH2           -12.0729242299       30.2192077773       27.1384695401  TIP3      2412            0.0000000000
     29487      2604  TIP3      H1            -12.3978396506       29.8318160255       26.2890208130  TIP3      2412            0.0000000000
     29488      2604  TIP3      H2            -11.4671752721       29.5231569450       27.4793017830  TIP3      2412            0.0000000000
     29489      2605  TIP3      OH2           -10.7554412066       33.6190446638       29.8149929095  TIP3      2413            0.0000000000
     29490      2605  TIP3      H1            -10.7654963848       33.0695178387       29.0235989529  TIP3      2413            0.0000000000
     29491      2605  TIP3      H2             -9.9866085403       33.2495869734       30.2879835786  TIP3      2413            0.0000000000
     29492      2606  TIP3      OH2           -11.7479893084       28.9597273771       30.8027727716  TIP3      2414            0.0000000000
     29493      2606  TIP3      H1            -11.1975562788       29.0647887008       30.0025414786  TIP3      2414            0.0000000000
     29494      2606  TIP3      H2            -11.3670940504       29.6239425539       31.4164304936  TIP3      2414            0.0000000000
     29495      2607  TIP3      OH2            -5.2891408134       34.5267465154       31.5453861056  TIP3      2415            0.0000000000
     29496      2607  TIP3      H1             -5.7018157560       35.1468628050       32.1381301349  TIP3      2415            0.0000000000
     29497      2607  TIP3      H2             -5.6074467572       33.6627772657       31.9179637924  TIP3      2415            0.0000000000
     29498      2608  TIP3      OH2           -10.8048701861       33.3918369918       35.5008819258  TIP3      2416            0.0000000000
     29499      2608  TIP3      H1            -11.2236458809       34.1433084640       35.9789783674  TIP3      2416            0.0000000000
     29500      2608  TIP3      H2            -11.4723219507       33.1689275840       34.8000284098  TIP3      2416            0.0000000000
     29501      2609  TIP3      OH2            -4.8652171581       28.8191692199       22.9027915609  TIP3      2417            0.0000000000
     29502      2609  TIP3      H1             -4.2952760943       28.9226605719       23.7064033543  TIP3      2417            0.0000000000
     29503      2609  TIP3      H2             -4.3672835177       29.2710370449       22.2006670530  TIP3      2417            0.0000000000
     29504      2610  TIP3      OH2           -13.8628080505       29.5519699204       34.6625266352  TIP3      2418            0.0000000000
     29505      2610  TIP3      H1            -13.8125728052       30.2205366288       35.3717036827  TIP3      2418            0.0000000000
     29506      2610  TIP3      H2            -14.8017676780       29.6462372285       34.4406985350  TIP3      2418            0.0000000000
     29507      2611  TIP3      OH2            -7.1815397335       35.4575915687       26.3967696101  TIP3      2419            0.0000000000
     29508      2611  TIP3      H1             -6.6402844853       35.7767432538       27.1188408322  TIP3      2419            0.0000000000
     29509      2611  TIP3      H2             -7.6543274483       36.2405751320       26.0935517967  TIP3      2419            0.0000000000
     29510      2612  TIP3      OH2           -12.5700867895       35.3502728861       36.2379241947  TIP3      2420            0.0000000000
     29511      2612  TIP3      H1            -12.6389626077       35.3123111508       35.2610838636  TIP3      2420            0.0000000000
     29512      2612  TIP3      H2            -13.5107297718       35.2838121171       36.5027815959  TIP3      2420            0.0000000000
     29513      2613  TIP3      OH2            -1.0945630256       20.5280303555       22.8794318201  TIP3      2421            0.0000000000
     29514      2613  TIP3      H1             -2.0636971761       20.5901010658       23.0216551423  TIP3      2421            0.0000000000
     29515      2613  TIP3      H2             -0.9126238527       21.2552818414       22.2814255803  TIP3      2421            0.0000000000
     29516      2614  TIP3      OH2           -13.0950207519       29.2583794992       24.7137164852  TIP3      2422            0.0000000000
     29517      2614  TIP3      H1            -13.3924726807       30.0489584829       24.2413399594  TIP3      2422            0.0000000000
     29518      2614  TIP3      H2            -13.7629825292       28.5823572035       24.5385346226  TIP3      2422            0.0000000000
     29519      2615  TIP3      OH2            -0.6851707007       34.3306062309       21.3142561824  TIP3      2423            0.0000000000
     29520      2615  TIP3      H1             -0.3671844808       35.2620221761       21.4810329838  TIP3      2423            0.0000000000
     29521      2615  TIP3      H2              0.2784464625       34.2584596677       21.0662732916  TIP3      2423            0.0000000000
     29522      2616  TIP3      OH2           -17.0305681362       31.6676775791       33.6483159829  TIP3      2424            0.0000000000
     29523      2616  TIP3      H1            -17.4688824693       31.5844989308       32.7811692561  TIP3      2424            0.0000000000
     29524      2616  TIP3      H2            -16.9521412005       30.7202819142       33.8671973715  TIP3      2424            0.0000000000
     29525      2617  TIP3      OH2           -17.2242225131       34.3617802144       30.4575067192  TIP3      2425            0.0000000000
     29526      2617  TIP3      H1            -16.2643211824       34.3145665643       30.3954379968  TIP3      2425            0.0000000000
     29527      2617  TIP3      H2            -17.3448589696       35.1841923755       30.9588785661  TIP3      2425            0.0000000000
     29528      2618  TIP3      OH2             0.9265650801       35.1003933707       36.1327302883  TIP3      2426            0.0000000000
     29529      2618  TIP3      H1              0.8737531741       34.1318027386       36.0944496546  TIP3      2426            0.0000000000
     29530      2618  TIP3      H2              0.0702235179       35.3353744160       36.5380065458  TIP3      2426            0.0000000000
     29531      2619  TIP3      OH2            -8.0811951281       34.6670962434       34.9800639580  TIP3      2427            0.0000000000
     29532      2619  TIP3      H1             -7.9815153510       35.4714592651       35.4960095185  TIP3      2427            0.0000000000
     29533      2619  TIP3      H2             -8.9284745532       34.2695806643       35.2556917234  TIP3      2427            0.0000000000
     29534      2620  TIP3      OH2            -1.8270822956       26.6590100834       36.7434748193  TIP3      2428            0.0000000000
     29535      2620  TIP3      H1             -2.2434281272       27.1891353163       36.0397612672  TIP3      2428            0.0000000000
     29536      2620  TIP3      H2             -1.7642625551       25.7120933762       36.5285392698  TIP3      2428            0.0000000000
     29537      2621  TIP3      OH2           -14.7329835192       32.9895425412       34.5987317056  TIP3      2429            0.0000000000
     29538      2621  TIP3      H1            -14.5214073377       32.6092823409       35.4755068651  TIP3      2429            0.0000000000
     29539      2621  TIP3      H2            -15.6026511724       32.5995808007       34.3722269459  TIP3      2429            0.0000000000
     29540      2622  TIP3      OH2           -12.0626276258       21.4511186711       30.5503788210  TIP3      2430            0.0000000000
     29541      2622  TIP3      H1            -12.9650909362       21.3323488416       30.1796649496  TIP3      2430            0.0000000000
     29542      2622  TIP3      H2            -12.1868793765       22.2869108229       31.0287405703  TIP3      2430            0.0000000000
     29543      2623  TIP3      OH2            -7.4192172687       21.1244498173       33.9112199324  TIP3      2431            0.0000000000
     29544      2623  TIP3      H1             -7.0249732252       20.7043304399       34.6981768795  TIP3      2431            0.0000000000
     29545      2623  TIP3      H2             -8.3903970687       20.9995973112       34.0542869906  TIP3      2431            0.0000000000
     29546      2624  TIP3      OH2            -4.4009817057       24.8881857978       34.6915632109  TIP3      2432            0.0000000000
     29547      2624  TIP3      H1             -4.8226092329       24.7082224028       35.5817737716  TIP3      2432            0.0000000000
     29548      2624  TIP3      H2             -4.5309764700       25.8384248567       34.5291621856  TIP3      2432            0.0000000000
     29549      2625  TIP3      OH2            -3.4392210049       29.7805984537       20.6145330884  TIP3      2433            0.0000000000
     29550      2625  TIP3      H1             -3.3140471680       29.5597545067       19.6768483484  TIP3      2433            0.0000000000
     29551      2625  TIP3      H2             -2.5707874760       30.1758244840       20.7401484141  TIP3      2433            0.0000000000
     29552      2626  TIP3      OH2           -11.9591139390       26.4292523481       31.7905615200  TIP3      2434            0.0000000000
     29553      2626  TIP3      H1            -12.6939910615       26.4095829144       32.4324845843  TIP3      2434            0.0000000000
     29554      2626  TIP3      H2            -12.0205036312       27.3369422173       31.4219633799  TIP3      2434            0.0000000000
     29555      2627  TIP3      OH2           -12.0011328084       26.5516224110       26.6514824485  TIP3      2435            0.0000000000
     29556      2627  TIP3      H1            -12.9357239831       26.2879927866       26.5199202369  TIP3      2435            0.0000000000
     29557      2627  TIP3      H2            -11.6135917091       26.2450576376       25.8041184999  TIP3      2435            0.0000000000
     29558      2628  TIP3      OH2            -6.4964907431       27.0202192998       25.4151954209  TIP3      2436            0.0000000000
     29559      2628  TIP3      H1             -6.8734589334       27.8689341072       25.0873686787  TIP3      2436            0.0000000000
     29560      2628  TIP3      H2             -5.7819929700       26.8729422767       24.7718904784  TIP3      2436            0.0000000000
     29561      2629  TIP3      OH2            -7.4041717362       27.2507782837       36.8568236453  TIP3      2437            0.0000000000
     29562      2629  TIP3      H1             -7.9545922595       26.4929787008       37.1797110178  TIP3      2437            0.0000000000
     29563      2629  TIP3      H2             -6.5910812568       27.1372043820       37.3734236302  TIP3      2437            0.0000000000
     29564      2630  TIP3      OH2            -5.4643743295       26.5326019396       28.2679719482  TIP3      2438            0.0000000000
     29565      2630  TIP3      H1             -5.7047137735       27.1014609431       27.5148779793  TIP3      2438            0.0000000000
     29566      2630  TIP3      H2             -5.3433268370       25.6841069971       27.7983607799  TIP3      2438            0.0000000000
     29567      2631  TIP3      OH2           -14.3295733532       26.6859241024       33.4857740402  TIP3      2439            0.0000000000
     29568      2631  TIP3      H1            -14.2625517010       27.0911678745       34.3677097005  TIP3      2439            0.0000000000
     29569      2631  TIP3      H2            -14.7773961765       25.8486461649       33.6852618475  TIP3      2439            0.0000000000
     29570      2632  TIP3      OH2           -10.9281399528       24.1959038885       20.3906152720  TIP3      2440            0.0000000000
     29571      2632  TIP3      H1            -11.3679555409       23.6402938201       21.0583824900  TIP3      2440            0.0000000000
     29572      2632  TIP3      H2            -11.6634967381       24.4036000476       19.8089169109  TIP3      2440            0.0000000000
     29573      2633  TIP3      OH2           -17.6771006411       23.7821193720       27.4656019551  TIP3      2441            0.0000000000
     29574      2633  TIP3      H1            -16.9890061240       23.7509287817       28.1570737737  TIP3      2441            0.0000000000
     29575      2633  TIP3      H2            -17.2305251016       23.4179797002       26.6755837157  TIP3      2441            0.0000000000
     29576      2634  TIP3      OH2           -16.3417231855       24.5592753352       22.9081719449  TIP3      2442            0.0000000000
     29577      2634  TIP3      H1            -15.9044683794       25.1193879293       22.2424625691  TIP3      2442            0.0000000000
     29578      2634  TIP3      H2            -17.1368108890       25.0963863547       23.0919504777  TIP3      2442            0.0000000000
     29579      2635  TIP3      OH2            -6.1785535180       28.1115606159       32.8764921803  TIP3      2443            0.0000000000
     29580      2635  TIP3      H1             -5.8960504182       27.4509625863       32.2122795969  TIP3      2443            0.0000000000
     29581      2635  TIP3      H2             -6.7224284116       27.5943486467       33.5002358828  TIP3      2443            0.0000000000
     29582      2636  TIP3      OH2            -9.4496733648       24.0986231871       27.6803053894  TIP3      2444            0.0000000000
     29583      2636  TIP3      H1            -10.3853850669       24.1046659695       27.9747138268  TIP3      2444            0.0000000000
     29584      2636  TIP3      H2             -8.9598147169       23.9375001157       28.5000704671  TIP3      2444            0.0000000000
     29585      2637  TIP3      OH2           -14.6421787136       25.6562598142       26.5470775659  TIP3      2445            0.0000000000
     29586      2637  TIP3      H1            -15.5179336571       25.7750960766       26.1205340852  TIP3      2445            0.0000000000
     29587      2637  TIP3      H2            -14.3311667512       24.8303091119       26.1376716166  TIP3      2445            0.0000000000
     29588      2638  TIP3      OH2           -11.0211299203       25.7171734526       24.2049091205  TIP3      2446            0.0000000000
     29589      2638  TIP3      H1            -10.0550321609       25.7753743623       24.3378675632  TIP3      2446            0.0000000000
     29590      2638  TIP3      H2            -11.2077875063       26.3465612127       23.4893038109  TIP3      2446            0.0000000000
     29591      2639  TIP3      OH2            -5.0218261798       23.3416903821       30.9250862002  TIP3      2447            0.0000000000
     29592      2639  TIP3      H1             -5.7328385294       23.3792800527       31.6038644700  TIP3      2447            0.0000000000
     29593      2639  TIP3      H2             -5.5258829319       23.0906391652       30.1342114314  TIP3      2447            0.0000000000
     29594      2640  TIP3      OH2           -12.2833264985       26.8912154808       21.7558568702  TIP3      2448            0.0000000000
     29595      2640  TIP3      H1            -12.8610467224       26.5013389394       21.0783449353  TIP3      2448            0.0000000000
     29596      2640  TIP3      H2            -11.4628081500       27.0839199887       21.2824358461  TIP3      2448            0.0000000000
     29597      2641  TIP3      OH2           -14.1492006320       31.4693801869       36.8091539086  TIP3      2449            0.0000000000
     29598      2641  TIP3      H1            -13.4445712411       31.6891758012       37.4444039361  TIP3      2449            0.0000000000
     29599      2641  TIP3      H2            -14.9412074867       31.5286390984       37.3855794601  TIP3      2449            0.0000000000
     29600      2642  TIP3      OH2            -8.1569457661       26.8544187181       29.5659452051  TIP3      2450            0.0000000000
     29601      2642  TIP3      H1             -7.5646790378       26.3156021965       29.0273975613  TIP3      2450            0.0000000000
     29602      2642  TIP3      H2             -8.3049271813       26.3053970469       30.3463946852  TIP3      2450            0.0000000000
     29603      2643  TIP3      OH2           -13.1405718396       22.9982452010       25.9983413903  TIP3      2451            0.0000000000
     29604      2643  TIP3      H1            -13.4528903443       22.0763460401       25.9840535566  TIP3      2451            0.0000000000
     29605      2643  TIP3      H2            -12.3525514538       22.9370958934       25.4397274279  TIP3      2451            0.0000000000
     29606      2644  TIP3      OH2            -9.5317022792       25.1819220144       31.9706837085  TIP3      2452            0.0000000000
     29607      2644  TIP3      H1            -10.3537717200       25.7029451227       32.0681017148  TIP3      2452            0.0000000000
     29608      2644  TIP3      H2             -8.9722842236       25.5279903503       32.6944275075  TIP3      2452            0.0000000000
     29609      2645  TIP3      OH2            -8.8978876638       31.3218207772       23.6513546796  TIP3      2453            0.0000000000
     29610      2645  TIP3      H1             -9.7601683936       30.9651118529       23.3333215359  TIP3      2453            0.0000000000
     29611      2645  TIP3      H2             -9.1246454934       31.5386894431       24.5806723461  TIP3      2453            0.0000000000
     29612      2646  TIP3      OH2            -1.7506534080       30.5727605828       32.4746348615  TIP3      2454            0.0000000000
     29613      2646  TIP3      H1             -1.1819018650       31.0749970957       31.8572407614  TIP3      2454            0.0000000000
     29614      2646  TIP3      H2             -2.6077080274       30.6700730772       32.0082386005  TIP3      2454            0.0000000000
     29615      2647  TIP3      OH2            -7.4616701177       31.6881046698       34.9043156471  TIP3      2455            0.0000000000
     29616      2647  TIP3      H1             -7.7941336183       31.2541353965       35.6986581905  TIP3      2455            0.0000000000
     29617      2647  TIP3      H2             -7.6837125095       32.6142993865       35.0244657674  TIP3      2455            0.0000000000
     29618      2648  TIP3      OH2            -4.3594218441       26.1354397840       23.5468926106  TIP3      2456            0.0000000000
     29619      2648  TIP3      H1             -3.4620325613       25.9856052643       23.8799668750  TIP3      2456            0.0000000000
     29620      2648  TIP3      H2             -4.2810340051       26.9038128696       22.9715155945  TIP3      2456            0.0000000000
     29621      2649  TIP3      OH2           -13.8257050134       30.7924957426       29.4720224500  TIP3      2457            0.0000000000
     29622      2649  TIP3      H1            -13.1333614066       30.7277286376       28.7841448048  TIP3      2457            0.0000000000
     29623      2649  TIP3      H2            -13.7586093222       29.9345664317       29.9270813912  TIP3      2457            0.0000000000
     29624      2650  TIP3      OH2           -16.8337211299       29.2048313002       34.7392787781  TIP3      2458            0.0000000000
     29625      2650  TIP3      H1            -16.6574909641       28.7643160464       35.5888999718  TIP3      2458            0.0000000000
     29626      2650  TIP3      H2            -17.4504288722       28.5900836674       34.3007620542  TIP3      2458            0.0000000000
     29627      2651  TIP3      OH2            -9.8218759707       28.7557528264       36.9181879544  TIP3      2459            0.0000000000
     29628      2651  TIP3      H1            -10.1349758542       28.4637944321       36.0511944531  TIP3      2459            0.0000000000
     29629      2651  TIP3      H2             -8.8922760886       28.4511853491       36.9127200188  TIP3      2459            0.0000000000
     29630      2652  TIP3      OH2            -5.1370551924       34.1816963002       34.8003667313  TIP3      2460            0.0000000000
     29631      2652  TIP3      H1             -6.0793611655       34.2364571707       34.6052334987  TIP3      2460            0.0000000000
     29632      2652  TIP3      H2             -5.1845738467       34.3351930500       35.7756001218  TIP3      2460            0.0000000000
     29633      2653  TIP3      OH2             0.5343401097       32.1370345368       36.0670733884  TIP3      2461            0.0000000000
     29634      2653  TIP3      H1             -0.3636168098       32.3346720583       35.7120289522  TIP3      2461            0.0000000000
     29635      2653  TIP3      H2              1.0711555268       32.0848886783       35.2473268790  TIP3      2461            0.0000000000
     29636      2654  TIP3      OH2            -1.0459143898       35.1082952111       23.7568111664  TIP3      2462            0.0000000000
     29637      2654  TIP3      H1             -1.5917534474       34.3631544805       24.0470347996  TIP3      2462            0.0000000000
     29638      2654  TIP3      H2             -1.0297645519       34.9228670966       22.8071321207  TIP3      2462            0.0000000000
     29639      2655  TIP3      OH2            -3.9750251408       29.9129993229       30.7778640278  TIP3      2463            0.0000000000
     29640      2655  TIP3      H1             -4.9170383170       29.7035626190       30.6522593302  TIP3      2463            0.0000000000
     29641      2655  TIP3      H2             -3.5425240997       29.1736097884       30.3126063075  TIP3      2463            0.0000000000
     29642      2656  TIP3      OH2           -11.4320390245       34.2370187287       26.7992749057  TIP3      2464            0.0000000000
     29643      2656  TIP3      H1            -10.9427314000       35.0558456231       26.6318999708  TIP3      2464            0.0000000000
     29644      2656  TIP3      H2            -12.3307286798       34.4701045359       26.5388809525  TIP3      2464            0.0000000000
     29645      2657  TIP3      OH2           -15.6999532070       29.0645587976       21.5186388720  TIP3      2465            0.0000000000
     29646      2657  TIP3      H1            -15.0864917431       29.7712038728       21.7547868625  TIP3      2465            0.0000000000
     29647      2657  TIP3      H2            -16.5696135704       29.4439908511       21.6787539661  TIP3      2465            0.0000000000
     29648      2658  TIP3      OH2           -10.0115004365       31.9097773503       26.4069328610  TIP3      2466            0.0000000000
     29649      2658  TIP3      H1            -10.3227915674       32.8331781545       26.4762238402  TIP3      2466            0.0000000000
     29650      2658  TIP3      H2            -10.7602515585       31.4359041509       26.8199008272  TIP3      2466            0.0000000000
     29651      2659  TIP3      OH2            -9.2882293022       35.7965295295       32.4818738347  TIP3      2467            0.0000000000
     29652      2659  TIP3      H1             -9.1415538016       36.7493011945       32.4103861969  TIP3      2467            0.0000000000
     29653      2659  TIP3      H2             -8.9722617074       35.6506000140       33.3857757196  TIP3      2467            0.0000000000
     29654      2660  TIP3      OH2            -6.0442611792       32.1133508378       32.4117113038  TIP3      2468            0.0000000000
     29655      2660  TIP3      H1             -6.3979859773       31.8899528693       33.2958201953  TIP3      2468            0.0000000000
     29656      2660  TIP3      H2             -5.4173141945       31.3954298023       32.2368331169  TIP3      2468            0.0000000000
     29657      2661  TIP3      OH2           -15.1818411935       23.9442163789       34.2923342443  TIP3      2469            0.0000000000
     29658      2661  TIP3      H1            -16.0905169995       24.2898206606       34.2608679199  TIP3      2469            0.0000000000
     29659      2661  TIP3      H2            -15.2951190590       23.0930479157       34.7441482445  TIP3      2469            0.0000000000
     29660      2662  TIP3      OH2           -15.5655813784       35.6957306854       32.7061589911  TIP3      2470            0.0000000000
     29661      2662  TIP3      H1            -15.2826001552       34.7796298975       32.7392989400  TIP3      2470            0.0000000000
     29662      2662  TIP3      H2            -15.3557450364       36.0298724530       33.5904971312  TIP3      2470            0.0000000000
     29663      2663  TIP3      OH2           -10.7314147286       33.7238983358       22.4353913990  TIP3      2471            0.0000000000
     29664      2663  TIP3      H1            -10.5885803698       33.2670563401       23.2538786648  TIP3      2471            0.0000000000
     29665      2663  TIP3      H2            -10.8025920776       34.6820006679       22.6457526095  TIP3      2471            0.0000000000
     29666      2664  TIP3      OH2            -6.4614548675       23.6971536892       33.2105310887  TIP3      2472            0.0000000000
     29667      2664  TIP3      H1             -5.7633060160       23.7683415930       33.8755591741  TIP3      2472            0.0000000000
     29668      2664  TIP3      H2             -6.8520305694       22.8258239450       33.4263612950  TIP3      2472            0.0000000000
     29669      2665  TIP3      OH2            -5.6739519374       23.2850043270       24.2803885452  TIP3      2473            0.0000000000
     29670      2665  TIP3      H1             -5.4960993738       23.8222318008       23.4936909213  TIP3      2473            0.0000000000
     29671      2665  TIP3      H2             -5.1263758795       23.7222957977       24.9436360406  TIP3      2473            0.0000000000
     29672      2666  TIP3      OH2            -8.4857907765       25.0476031031       25.1456522547  TIP3      2474            0.0000000000
     29673      2666  TIP3      H1             -7.6870438894       25.6109288415       25.1653784544  TIP3      2474            0.0000000000
     29674      2666  TIP3      H2             -8.7266315606       24.9147411023       26.0810678851  TIP3      2474            0.0000000000
     29675      2667  TIP3      OH2            -7.9200969139       26.0647721032       34.3235795257  TIP3      2475            0.0000000000
     29676      2667  TIP3      H1             -7.8631751545       26.6118824043       35.1338497541  TIP3      2475            0.0000000000
     29677      2667  TIP3      H2             -7.2918535147       25.3433276699       34.4345672825  TIP3      2475            0.0000000000
     29678      2668  TIP3      OH2            -7.6139376093       22.0923231598       26.0582757237  TIP3      2476            0.0000000000
     29679      2668  TIP3      H1             -7.9494889329       22.7501546634       26.6891894924  TIP3      2476            0.0000000000
     29680      2668  TIP3      H2             -6.9387633644       22.6401440222       25.5887952587  TIP3      2476            0.0000000000
     29681      2669  TIP3      OH2           -10.3503436957      -36.5145959205       23.3130666198  TIP3      2477            0.0000000000
     29682      2669  TIP3      H1            -10.5768789393      -35.8061870502       22.6724556053  TIP3      2477            0.0000000000
     29683      2669  TIP3      H2            -10.8818440891      -36.1969731106       24.0459529371  TIP3      2477            0.0000000000
     29684      2670  TIP3      OH2           -11.9559349580       23.1717602251       22.7703508524  TIP3      2478            0.0000000000
     29685      2670  TIP3      H1            -12.0136884122       24.0862692388       23.1050067952  TIP3      2478            0.0000000000
     29686      2670  TIP3      H2            -11.0323745293       22.9574930515       22.9979873387  TIP3      2478            0.0000000000
     29687      2671  TIP3      OH2            -1.7271067445       23.8832921923       35.1692753858  TIP3      2479            0.0000000000
     29688      2671  TIP3      H1             -2.6907208529       23.8982746981       35.0593155608  TIP3      2479            0.0000000000
     29689      2671  TIP3      H2             -1.3872129221       23.7985331490       34.2467601655  TIP3      2479            0.0000000000
     29690      2672  TIP3      OH2            -3.1293243343       27.7184897615       29.1981532629  TIP3      2480            0.0000000000
     29691      2672  TIP3      H1             -3.9513297291       27.2728626466       28.9178348850  TIP3      2480            0.0000000000
     29692      2672  TIP3      H2             -2.6475541853       27.0245704870       29.6951144654  TIP3      2480            0.0000000000
     29693      2673  TIP3      OH2           -15.4092100848       26.2717606399       20.9334074634  TIP3      2481            0.0000000000
     29694      2673  TIP3      H1            -15.3995589838       27.2368378528       21.1106900837  TIP3      2481            0.0000000000
     29695      2673  TIP3      H2            -16.2842151094       26.0772930907       20.5868251925  TIP3      2481            0.0000000000
     29696      2674  TIP3      OH2           -14.5728485104       21.0970846287       29.6635104108  TIP3      2482            0.0000000000
     29697      2674  TIP3      H1            -14.7759008934       21.1171941709       28.7011710603  TIP3      2482            0.0000000000
     29698      2674  TIP3      H2            -14.9920683392       20.2507308394       29.9247167656  TIP3      2482            0.0000000000
     29699      2675  TIP3      OH2           -15.6164732772       35.0185667927       25.7745256647  TIP3      2483            0.0000000000
     29700      2675  TIP3      H1            -16.4725835821       35.4764014130       25.7914519127  TIP3      2483            0.0000000000
     29701      2675  TIP3      H2            -15.1120392894       35.5084062128       25.1147236111  TIP3      2483            0.0000000000
     29702      2676  TIP3      OH2           -11.4528807154       36.2964241475       38.9528520934  TIP3      2484            0.0000000000
     29703      2676  TIP3      H1            -10.6062987680       35.8769310311       39.0931332059  TIP3      2484            0.0000000000
     29704      2676  TIP3      H2            -11.5579266962       36.1459078425       37.9880181865  TIP3      2484            0.0000000000
     29705      2677  TIP3      OH2            -5.1499011383       34.6423735310       37.3230436646  TIP3      2485            0.0000000000
     29706      2677  TIP3      H1             -5.6178635236       33.9317842538       37.7939153802  TIP3      2485            0.0000000000
     29707      2677  TIP3      H2             -4.5234035844       34.9825016766       37.9663861090  TIP3      2485            0.0000000000
     29708      2678  TIP3      OH2            -3.0728250369       35.8427679121       20.3139580666  TIP3      2486            0.0000000000
     29709      2678  TIP3      H1             -2.7709538911       35.0803459338       20.8083270435  TIP3      2486            0.0000000000
     29710      2678  TIP3      H2             -2.3582626707       36.0845079761       19.7393703462  TIP3      2486            0.0000000000
     29711      2679  TIP3      OH2           -16.4997236798       31.4151518961       38.0933244781  TIP3      2487            0.0000000000
     29712      2679  TIP3      H1            -16.3265066982       30.5161444789       37.7600269865  TIP3      2487            0.0000000000
     29713      2679  TIP3      H2            -17.2264098111       31.7161867777       37.5149089321  TIP3      2487            0.0000000000
     29714      2680  TIP3      OH2            -9.7583982909       31.4173939618       37.4511939626  TIP3      2488            0.0000000000
     29715      2680  TIP3      H1            -10.1294195691       31.7219722732       36.6040979329  TIP3      2488            0.0000000000
     29716      2680  TIP3      H2             -9.6982707704       30.4355936339       37.3559810684  TIP3      2488            0.0000000000
     29717      2681  TIP3      OH2            -4.0755122341       31.2679893223       34.8771421200  TIP3      2489            0.0000000000
     29718      2681  TIP3      H1             -3.3013109950       31.8618106248       34.7834202829  TIP3      2489            0.0000000000
     29719      2681  TIP3      H2             -4.7855599296       31.9246788791       34.9103631819  TIP3      2489            0.0000000000
     29720      2682  TIP3      OH2           -15.5811194999       28.6790643212       37.4802327277  TIP3      2490            0.0000000000
     29721      2682  TIP3      H1            -15.1742125650       27.8099124407       37.3866812227  TIP3      2490            0.0000000000
     29722      2682  TIP3      H2            -15.8165331482       28.6847875991       38.4283336028  TIP3      2490            0.0000000000
     29723      2683  TIP3      OH2           -10.8686330587       29.7910548818       22.5504280927  TIP3      2491            0.0000000000
     29724      2683  TIP3      H1            -11.4416463976       29.2960775003       23.1608788333  TIP3      2491            0.0000000000
     29725      2683  TIP3      H2            -10.7029819563       29.1114954169       21.8660031942  TIP3      2491            0.0000000000
     29726      2684  TIP3      OH2           -11.6809750415       27.6161734737       34.8366730875  TIP3      2492            0.0000000000
     29727      2684  TIP3      H1            -12.2804157501       28.3343273762       35.0954687500  TIP3      2492            0.0000000000
     29728      2684  TIP3      H2            -11.2910891609       27.9807350453       34.0236368895  TIP3      2492            0.0000000000
     29729      2685  TIP3      OH2            -9.8564129262       28.0504899385       20.7293530539  TIP3      2493            0.0000000000
     29730      2685  TIP3      H1            -10.0437406546       27.8388396863       19.8096375608  TIP3      2493            0.0000000000
     29731      2685  TIP3      H2             -8.8955955874       28.0578845471       20.7946260926  TIP3      2493            0.0000000000
     29732      2686  TIP3      OH2            -6.6130133887       30.1819077219       38.2391930343  TIP3      2494            0.0000000000
     29733      2686  TIP3      H1             -5.6625519490       30.1577145779       38.0548291351  TIP3      2494            0.0000000000
     29734      2686  TIP3      H2             -6.7788599530       29.3949841531       38.7796153403  TIP3      2494            0.0000000000
     29735      2687  TIP3      OH2           -11.2698570661       25.0009682304       35.8831447372  TIP3      2495            0.0000000000
     29736      2687  TIP3      H1            -11.1621899251       24.2791681178       35.2384043108  TIP3      2495            0.0000000000
     29737      2687  TIP3      H2            -11.3205773676       25.8066979003       35.3327085853  TIP3      2495            0.0000000000
     29738      2688  TIP3      OH2           -10.8755671681       23.3709576049       33.4440276041  TIP3      2496            0.0000000000
     29739      2688  TIP3      H1            -10.3653453188       23.8365117426       32.7391372515  TIP3      2496            0.0000000000
     29740      2688  TIP3      H2            -11.7669834302       23.2900421774       33.0333323041  TIP3      2496            0.0000000000
     29741      2689  TIP3      OH2            -9.3319315798       28.8487538579       33.6850749865  TIP3      2497            0.0000000000
     29742      2689  TIP3      H1             -8.5716155453       28.6830723731       33.1175970984  TIP3      2497            0.0000000000
     29743      2689  TIP3      H2             -9.6912837091       29.6891950336       33.3539449400  TIP3      2497            0.0000000000
     29744      2690  TIP3      OH2            -4.9213157012       26.6060149292       38.5886895640  TIP3      2498            0.0000000000
     29745      2690  TIP3      H1             -4.7181443351       25.6596161467       38.6271168079  TIP3      2498            0.0000000000
     29746      2690  TIP3      H2             -4.0581094128       27.0362295808       38.6839780635  TIP3      2498            0.0000000000
     29747      2691  TIP3      OH2            -3.5761715944       29.3787935316       36.8028876311  TIP3      2499            0.0000000000
     29748      2691  TIP3      H1             -3.8554780988       30.1292911986       36.2253080150  TIP3      2499            0.0000000000
     29749      2691  TIP3      H2             -2.6182824042       29.4218580227       36.6260121628  TIP3      2499            0.0000000000
     29750      2692  TIP3      OH2           -12.8044407659       26.2307668425       37.8365362138  TIP3      2500            0.0000000000
     29751      2692  TIP3      H1            -13.5873309120       25.6747874214       37.6336272894  TIP3      2500            0.0000000000
     29752      2692  TIP3      H2            -12.1678795629       25.8805676472       37.1841606629  TIP3      2500            0.0000000000
     29753      2693  TIP3      OH2           -10.0906190772       20.8068661768       33.8495785800  TIP3      2501            0.0000000000
     29754      2693  TIP3      H1            -10.2581703983       21.7711708775       33.7405796580  TIP3      2501            0.0000000000
     29755      2693  TIP3      H2            -10.8363102778       20.4456013859       33.3386505153  TIP3      2501            0.0000000000
     29756      2694  TIP3      OH2            -8.8094256568       25.1409167149       37.4630855595  TIP3      2502            0.0000000000
     29757      2694  TIP3      H1             -9.1160904637       24.9160589204       38.3592676654  TIP3      2502            0.0000000000
     29758      2694  TIP3      H2             -9.5946147808       24.9463582066       36.9140055170  TIP3      2502            0.0000000000
     29759      2695  TIP3      OH2            -6.0920092669       24.2962522660       36.5728337184  TIP3      2503            0.0000000000
     29760      2695  TIP3      H1             -7.0632530668       24.3291622773       36.6651257328  TIP3      2503            0.0000000000
     29761      2695  TIP3      H2             -5.8452045943       23.6287469712       37.2411848790  TIP3      2503            0.0000000000
     29762      2696  TIP3      OH2            -4.5186138660       22.9121751188       38.4487270570  TIP3      2504            0.0000000000
     29763      2696  TIP3      H1             -4.5653124562       21.9339893689       38.4886924520  TIP3      2504            0.0000000000
     29764      2696  TIP3      H2             -4.7812018134       23.1944884644       39.3611486093  TIP3      2504            0.0000000000
     29765      2697  TIP3      OH2           -14.7261767446       24.1748098342       37.5574057763  TIP3      2505            0.0000000000
     29766      2697  TIP3      H1            -14.4805115158       23.4352286305       36.9721542938  TIP3      2505            0.0000000000
     29767      2697  TIP3      H2            -14.8105521231       23.7337408229       38.4297046184  TIP3      2505            0.0000000000
     29768      2698  TIP3      OH2            -9.8709172634       20.1879929038       36.5375312657  TIP3      2506            0.0000000000
     29769      2698  TIP3      H1             -9.1896627912       19.4834780107       36.5147281608  TIP3      2506            0.0000000000
     29770      2698  TIP3      H2             -9.9787519238       20.3527240842       35.5815675738  TIP3      2506            0.0000000000
     29771      2699  TIP3      OH2            -9.5227553639       21.8034101407       38.6293562454  TIP3      2507            0.0000000000
     29772      2699  TIP3      H1             -9.6802645395       21.3033718699       37.7918470518  TIP3      2507            0.0000000000
     29773      2699  TIP3      H2            -10.1013644048       22.5820189218       38.5250145814  TIP3      2507            0.0000000000
     29774      2700  TIP3      OH2           -16.4364770997       33.3290338726       21.2636550632  TIP3      2508            0.0000000000
     29775      2700  TIP3      H1            -15.5007326353       33.4252950767       21.5099025689  TIP3      2508            0.0000000000
     29776      2700  TIP3      H2            -16.4257969060       32.6750065524       20.5421390193  TIP3      2508            0.0000000000
     29777      2701  TIP3      OH2            -1.3097121342       32.9308478239       38.6866837565  TIP3      2509            0.0000000000
     29778      2701  TIP3      H1             -2.2131365931       32.8910624614       39.0664469124  TIP3      2509            0.0000000000
     29779      2701  TIP3      H2             -0.9309626211       33.7174434041       39.1334140889  TIP3      2509            0.0000000000
     29780      2702  TIP3      OH2             0.1120325164       32.0446703575       31.0235364408  TIP3      2510            0.0000000000
     29781      2702  TIP3      H1              0.9109482415       31.6620785326       30.6181148141  TIP3      2510            0.0000000000
     29782      2702  TIP3      H2              0.2527735674       32.9853260384       30.8149830478  TIP3      2510            0.0000000000
     29783      2703  TIP3      OH2            -1.4086093570       35.0532137579       33.2483784628  TIP3      2511            0.0000000000
     29784      2703  TIP3      H1             -2.1095322535       35.1899731475       33.8951588284  TIP3      2511            0.0000000000
     29785      2703  TIP3      H2             -1.8818435162       34.5115018178       32.5583497238  TIP3      2511            0.0000000000
     29786      2704  TIP3      OH2            -0.9458321475       26.3766572988       20.9520225889  TIP3      2512            0.0000000000
     29787      2704  TIP3      H1             -0.8751912984       27.1104031767       20.2950948224  TIP3      2512            0.0000000000
     29788      2704  TIP3      H2             -1.2177218856       25.6497828583       20.3946297110  TIP3      2512            0.0000000000
     29789      2705  TIP3      OH2            -1.8313884711       27.8221499877       26.5395656733  TIP3      2513            0.0000000000
     29790      2705  TIP3      H1             -1.9896256033       26.8650901167       26.5449750103  TIP3      2513            0.0000000000
     29791      2705  TIP3      H2             -2.1411314423       28.0534741622       27.4391959483  TIP3      2513            0.0000000000
     29792      2706  TIP3      OH2           -16.8252595957       29.8977767801       30.6223564634  TIP3      2514            0.0000000000
     29793      2706  TIP3      H1            -16.6430989980       29.8145866819       29.6608086665  TIP3      2514            0.0000000000
     29794      2706  TIP3      H2            -15.9330350069       29.7264263902       30.9817920801  TIP3      2514            0.0000000000
     29795      2707  TIP3      OH2            -0.9792008811       29.7520414127       36.2240515349  TIP3      2515            0.0000000000
     29796      2707  TIP3      H1             -0.3318550940       29.0366695004       36.4003800626  TIP3      2515            0.0000000000
     29797      2707  TIP3      H2             -0.3981851548       30.5458004678       36.2497716788  TIP3      2515            0.0000000000
     29798      2708  TIP3      OH2             0.5381536407       27.6738446343       36.8745449118  TIP3      2516            0.0000000000
     29799      2708  TIP3      H1             -0.3387044541       27.2687180648       36.7779797967  TIP3      2516            0.0000000000
     29800      2708  TIP3      H2              1.1309897109       26.9028957981       36.8474334593  TIP3      2516            0.0000000000
     29801      2709  TIP3      OH2            -2.1334099345       25.3808805530       25.0378593060  TIP3      2517            0.0000000000
     29802      2709  TIP3      H1             -1.8686158669       24.4428113644       25.1725330905  TIP3      2517            0.0000000000
     29803      2709  TIP3      H2             -1.3592501738       25.7846955211       24.6538245292  TIP3      2517            0.0000000000
     29804      2710  TIP3      OH2            -1.5274518628       25.9332974072       30.4690532741  TIP3      2518            0.0000000000
     29805      2710  TIP3      H1             -0.5680455135       26.1741764353       30.4321116792  TIP3      2518            0.0000000000
     29806      2710  TIP3      H2             -1.7136300900       26.0938755262       31.3947633133  TIP3      2518            0.0000000000
     29807      2711  TIP3      OH2            -1.4606437552       26.7010854629       33.2960137140  TIP3      2519            0.0000000000
     29808      2711  TIP3      H1             -2.3503082434       27.0861201508       33.4362837432  TIP3      2519            0.0000000000
     29809      2711  TIP3      H2             -0.9844430835       27.5160290882       32.9928243462  TIP3      2519            0.0000000000
     29810      2712  TIP3      OH2           -17.2056975635       25.1868124816       36.7610104731  TIP3      2520            0.0000000000
     29811      2712  TIP3      H1            -16.2712083588       24.9922307182       36.9696075427  TIP3      2520            0.0000000000
     29812      2712  TIP3      H2            -17.6637477229       24.3754200040       37.0714355799  TIP3      2520            0.0000000000
     29813      2713  TIP3      OH2             0.8020618610       20.7202223783       38.5757599127  TIP3      2521            0.0000000000
     29814      2713  TIP3      H1              1.1644716585       20.0456040375       37.9800544454  TIP3      2521            0.0000000000
     29815      2713  TIP3      H2              0.9265767466       21.5380737261       38.0657655784  TIP3      2521            0.0000000000
     29816      2714  TIP3      OH2            -1.4880579068       22.6688318027       25.0555102775  TIP3      2522            0.0000000000
     29817      2714  TIP3      H1             -1.2952761113       22.2351170154       25.9180469602  TIP3      2522            0.0000000000
     29818      2714  TIP3      H2             -2.1156433686       22.0306283360       24.6442610839  TIP3      2522            0.0000000000
     29819      2715  TIP3      OH2           -16.0095028503       23.4877126771       29.6280475644  TIP3      2523            0.0000000000
     29820      2715  TIP3      H1            -15.5468285896       22.6650898674       29.8900900393  TIP3      2523            0.0000000000
     29821      2715  TIP3      H2            -15.4669935765       24.1825754727       30.0222352315  TIP3      2523            0.0000000000
     29822      2716  TIP3      OH2           -17.7253052324       26.4866184707       30.6686467311  TIP3      2524            0.0000000000
     29823      2716  TIP3      H1            -17.1637197584       26.2435639109       29.9042775797  TIP3      2524            0.0000000000
     29824      2716  TIP3      H2            -17.2665984235       27.2958607829       30.9378472311  TIP3      2524            0.0000000000
     29825      2717  TIP3      OH2             0.3348423808       22.8388739985       36.9391386108  TIP3      2525            0.0000000000
     29826      2717  TIP3      H1             -0.6133648995       23.0620793123       36.9238727957  TIP3      2525            0.0000000000
     29827      2717  TIP3      H2              0.3798622865       22.2601880756       36.1604818577  TIP3      2525            0.0000000000
     29828      2718  TIP3      OH2           -17.3614447481       22.7891547310       24.7769494933  TIP3      2526            0.0000000000
     29829      2718  TIP3      H1            -18.2980089216       22.9253620143       24.5816841858  TIP3      2526            0.0000000000
     29830      2718  TIP3      H2            -16.9339876017       23.1978986820       23.9986326274  TIP3      2526            0.0000000000
     29831      2719  TIP3      OH2           -17.4100564613       21.4089943549       33.0373879117  TIP3      2527            0.0000000000
     29832      2719  TIP3      H1            -18.0801797115       21.2143664690       33.7161163831  TIP3      2527            0.0000000000
     29833      2719  TIP3      H2            -17.8665789133       22.0804380229       32.4897970043  TIP3      2527            0.0000000000
     29834      2720  TIP3      OH2           -15.1826107543       34.6599464165       37.2096179804  TIP3      2528            0.0000000000
     29835      2720  TIP3      H1            -16.0348675239       34.7997773429       36.7605208724  TIP3      2528            0.0000000000
     29836      2720  TIP3      H2            -15.4575999314       34.5127648815       38.1235662121  TIP3      2528            0.0000000000
     29837      2721  TIP3      OH2           -12.2338017796       35.6050435746       33.5480219599  TIP3      2529            0.0000000000
     29838      2721  TIP3      H1            -12.6792514105       36.3855483574       33.1839901898  TIP3      2529            0.0000000000
     29839      2721  TIP3      H2            -11.3682446093       35.5986643642       33.1144099624  TIP3      2529            0.0000000000
     29840      2722  TIP3      OH2            -0.6577486586       20.9292342185       34.7945722067  TIP3      2530            0.0000000000
     29841      2722  TIP3      H1             -1.4881558462       21.1957364050       34.3708332127  TIP3      2530            0.0000000000
     29842      2722  TIP3      H2             -0.4724255064       20.1065865227       34.2818793309  TIP3      2530            0.0000000000
     29843      2723  TIP3      OH2           -13.0792033210       35.9632203106       28.8525138650  TIP3      2531            0.0000000000
     29844      2723  TIP3      H1            -13.4667083556       35.1998760119       29.3066886350  TIP3      2531            0.0000000000
     29845      2723  TIP3      H2            -12.4918143066       36.3174436858       29.5434017902  TIP3      2531            0.0000000000
     29846      2724  TIP3      OH2            -7.2558896707       22.3391139107       29.0913647665  TIP3      2532            0.0000000000
     29847      2724  TIP3      H1             -7.9349966051       21.6975628213       29.3604054319  TIP3      2532            0.0000000000
     29848      2724  TIP3      H2             -6.7074768695       21.8110845707       28.4993775074  TIP3      2532            0.0000000000
     29849      2725  TIP3      OH2            -2.1221704082       20.3968208955       29.1577261917  TIP3      2533            0.0000000000
     29850      2725  TIP3      H1             -1.5095580194       20.9826150370       28.6443477204  TIP3      2533            0.0000000000
     29851      2725  TIP3      H2             -3.0054928286       20.7503313878       28.9241778637  TIP3      2533            0.0000000000
     29852      2726  TIP3      OH2            -0.4558131039       21.6277418083       27.4320788676  TIP3      2534            0.0000000000
     29853      2726  TIP3      H1              0.2357938970       21.0605585343       27.0156516484  TIP3      2534            0.0000000000
     29854      2726  TIP3      H2              0.0406643026       22.4626921041       27.5846728652  TIP3      2534            0.0000000000
     29855      2727  TIP3      OH2           -14.8805046019       20.9696381176       26.9162146915  TIP3      2535            0.0000000000
     29856      2727  TIP3      H1            -15.6883207801       20.7675955393       26.4120049414  TIP3      2535            0.0000000000
     29857      2727  TIP3      H2            -14.4206523736       20.1106462228       26.8768540478  TIP3      2535            0.0000000000
     29858      2728  TIP3      OH2           -10.4110258261       20.8857330048       26.7210815133  TIP3      2536            0.0000000000
     29859      2728  TIP3      H1             -9.5110609047       21.2483652542       26.6408825549  TIP3      2536            0.0000000000
     29860      2728  TIP3      H2            -10.4491566820       20.6753168471       27.6525452205  TIP3      2536            0.0000000000
     29861      2729  TIP3      OH2            -4.7109335290       20.9134514542       28.3471517436  TIP3      2537            0.0000000000
     29862      2729  TIP3      H1             -4.7466686553       21.0231358526       27.3878001121  TIP3      2537            0.0000000000
     29863      2729  TIP3      H2             -5.0820669093       20.0050921660       28.4707863047  TIP3      2537            0.0000000000
     29864      2730  TIP3      OH2            -3.4463620013       20.9500432804       24.0936694742  TIP3      2538            0.0000000000
     29865      2730  TIP3      H1             -4.1720116754       21.5377556377       23.8448567738  TIP3      2538            0.0000000000
     29866      2730  TIP3      H2             -3.9077851480       20.0958315495       24.2303447435  TIP3      2538            0.0000000000
     29867      2731  TIP3      OH2            -9.3153093460       22.9156787635       23.6029037686  TIP3      2539            0.0000000000
     29868      2731  TIP3      H1             -9.0009112730       22.3343478811       24.3053513545  TIP3      2539            0.0000000000
     29869      2731  TIP3      H2             -9.1816119322       23.7837565730       24.0445894257  TIP3      2539            0.0000000000
     29870      2732  TIP3      OH2           -15.0040094183       21.5026517624       36.3840890170  TIP3      2540            0.0000000000
     29871      2732  TIP3      H1            -15.3848960101       20.7085047511       36.8063958411  TIP3      2540            0.0000000000
     29872      2732  TIP3      H2            -14.0890493730       21.4686125378       36.7492844376  TIP3      2540            0.0000000000
     29873      2733  TIP3      OH2           -12.9988780031       20.8984451257       38.0265746531  TIP3      2541            0.0000000000
     29874      2733  TIP3      H1            -12.1164767989       20.5491941365       37.7838403473  TIP3      2541            0.0000000000
     29875      2733  TIP3      H2            -13.3767001629       20.0951921768       38.4367449008  TIP3      2541            0.0000000000
     29876      2734  TIP3      OH2            -4.5940678827       20.1859077464       38.1724705591  TIP3      2542            0.0000000000
     29877      2734  TIP3      H1             -4.4954766811       19.7060625319       39.0166041674  TIP3      2542            0.0000000000
     29878      2734  TIP3      H2             -3.6783225166       20.1574367166       37.8227290294  TIP3      2542            0.0000000000
     29879      2735  TIP3      OH2            -1.5426513812      -36.8450842662       36.9804103465  TIP3      2543            0.0000000000
     29880      2735  TIP3      H1             -2.2059160452      -36.9862378820       36.2995932464  TIP3      2543            0.0000000000
     29881      2735  TIP3      H2             -1.4344305907      -35.8806282427       36.9727226939  TIP3      2543            0.0000000000
     29882      2736  TIP3      OH2            13.0493447196       30.0940112139       26.8114602475  TIP3      2544            0.0000000000
     29883      2736  TIP3      H1             13.0479946767       31.0748585366       26.7516816828  TIP3      2544            0.0000000000
     29884      2736  TIP3      H2             12.3321909329       29.8621665306       26.2003513130  TIP3      2544            0.0000000000
     29885      2737  TIP3      OH2            11.9110833839       29.3658160995       30.2947720123  TIP3      2545            0.0000000000
     29886      2737  TIP3      H1             11.8953486932       28.7120399165       31.0064560184  TIP3      2545            0.0000000000
     29887      2737  TIP3      H2             11.5759838367       28.8627759729       29.5322893551  TIP3      2545            0.0000000000
     29888      2738  TIP3      OH2             4.2632825270       29.0316198328       31.8461241220  TIP3      2546            0.0000000000
     29889      2738  TIP3      H1              4.3511905811       28.3524957306       32.5456003056  TIP3      2546            0.0000000000
     29890      2738  TIP3      H2              5.0137128878       29.6077164981       32.0627521526  TIP3      2546            0.0000000000
     29891      2739  TIP3      OH2            15.6126709931       32.3120859770       28.5658042734  TIP3      2547            0.0000000000
     29892      2739  TIP3      H1             15.2093681133       31.5934525871       29.0640483116  TIP3      2547            0.0000000000
     29893      2739  TIP3      H2             15.6332133458       33.0240852430       29.2266793703  TIP3      2547            0.0000000000
     29894      2740  TIP3      OH2             5.2085811161       33.4862299021       30.3776743633  TIP3      2548            0.0000000000
     29895      2740  TIP3      H1              4.8756052274       32.6325675896       30.0324377383  TIP3      2548            0.0000000000
     29896      2740  TIP3      H2              6.1614279268       33.2919216674       30.3876071794  TIP3      2548            0.0000000000
     29897      2741  TIP3      OH2             1.8354432978       27.0816385210       25.7946680961  TIP3      2549            0.0000000000
     29898      2741  TIP3      H1              1.3895222980       27.9376926263       25.8520751087  TIP3      2549            0.0000000000
     29899      2741  TIP3      H2              1.2492345982       26.5125510188       25.3049901959  TIP3      2549            0.0000000000
     29900      2742  TIP3      OH2             2.5342340906       29.2495846054       27.9162012425  TIP3      2550            0.0000000000
     29901      2742  TIP3      H1              2.8025510735       28.4583851648       28.4156977054  TIP3      2550            0.0000000000
     29902      2742  TIP3      H2              3.2861390979       29.3903228272       27.3305416763  TIP3      2550            0.0000000000
     29903      2743  TIP3      OH2            10.2748911632       31.7471215420       30.7610703011  TIP3      2551            0.0000000000
     29904      2743  TIP3      H1             10.6265583534       31.1321541003       30.0993455480  TIP3      2551            0.0000000000
     29905      2743  TIP3      H2             11.0832469569       31.9364272719       31.2676264865  TIP3      2551            0.0000000000
     29906      2744  TIP3      OH2            18.8909473571       23.4223319187       31.5018806662  TIP3      2552            0.0000000000
     29907      2744  TIP3      H1             19.0630745146       24.0201523685       32.2583541980  TIP3      2552            0.0000000000
     29908      2744  TIP3      H2             19.4471858183       23.8412609840       30.8262081910  TIP3      2552            0.0000000000
     29909      2745  TIP3      OH2            13.4549711531       26.2319984180       31.0697235720  TIP3      2553            0.0000000000
     29910      2745  TIP3      H1             13.6198338879       25.2725175823       31.0721932934  TIP3      2553            0.0000000000
     29911      2745  TIP3      H2             13.3534205796       26.3756942743       30.1093385598  TIP3      2553            0.0000000000
     29912      2746  TIP3      OH2             6.5604963514       24.3196632305       28.2903852559  TIP3      2554            0.0000000000
     29913      2746  TIP3      H1              6.6724777664       25.1599529270       27.8030313766  TIP3      2554            0.0000000000
     29914      2746  TIP3      H2              6.1652737935       23.7455364950       27.6077083045  TIP3      2554            0.0000000000
     29915      2747  TIP3      OH2            14.3250261450       24.4028107791       26.6675860161  TIP3      2555            0.0000000000
     29916      2747  TIP3      H1             14.9890027248       24.0786273052       27.3236295053  TIP3      2555            0.0000000000
     29917      2747  TIP3      H2             14.8549759323       24.9610272335       26.0975976766  TIP3      2555            0.0000000000
     29918      2748  TIP3      OH2             3.1969576641       26.7266621797       29.0361576627  TIP3      2556            0.0000000000
     29919      2748  TIP3      H1              3.8693052403       26.1809823324       29.4842129217  TIP3      2556            0.0000000000
     29920      2748  TIP3      H2              3.3078057396       26.4201968116       28.1270468777  TIP3      2556            0.0000000000
     29921      2749  TIP3      OH2             8.3536799546       28.2768977299       28.3401936759  TIP3      2557            0.0000000000
     29922      2749  TIP3      H1              9.0254377532       27.7023988339       28.7431311785  TIP3      2557            0.0000000000
     29923      2749  TIP3      H2              7.8416797301       27.6224035964       27.8217867731  TIP3      2557            0.0000000000
     29924      2750  TIP3      OH2            19.3275553695       24.8300165509       33.7663933089  TIP3      2558            0.0000000000
     29925      2750  TIP3      H1             18.7227147233       25.5980256598       33.6667071887  TIP3      2558            0.0000000000
     29926      2750  TIP3      H2             19.3674021812       24.7626262985       34.7281240285  TIP3      2558            0.0000000000
     29927      2751  TIP3      OH2             5.4751499319       23.2179412945       32.3325963704  TIP3      2559            0.0000000000
     29928      2751  TIP3      H1              5.2003508481       23.7872361559       31.5838095398  TIP3      2559            0.0000000000
     29929      2751  TIP3      H2              4.7951606367       23.4493056167       33.0118550277  TIP3      2559            0.0000000000
     29930      2752  TIP3      OH2            12.7790508120       32.6876856203       25.9078900341  TIP3      2560            0.0000000000
     29931      2752  TIP3      H1             12.5034254870       32.4350247551       25.0182380622  TIP3      2560            0.0000000000
     29932      2752  TIP3      H2             12.4530505714       33.6113745278       25.9261096887  TIP3      2560            0.0000000000
     29933      2753  TIP3      OH2             7.9934559609       30.8463873162       32.5885234108  TIP3      2561            0.0000000000
     29934      2753  TIP3      H1              7.2834854781       31.4923100803       32.7882648894  TIP3      2561            0.0000000000
     29935      2753  TIP3      H2              8.6984732728       31.4405852097       32.2873712680  TIP3      2561            0.0000000000
     29936      2754  TIP3      OH2            16.1089982294       23.7479874612       28.6600794099  TIP3      2562            0.0000000000
     29937      2754  TIP3      H1             15.9012132456       22.9696889377       29.1824256335  TIP3      2562            0.0000000000
     29938      2754  TIP3      H2             16.7745235262       24.1805808839       29.2189130034  TIP3      2562            0.0000000000
     29939      2755  TIP3      OH2             5.0418873540       25.0783219006       30.3574038141  TIP3      2563            0.0000000000
     29940      2755  TIP3      H1              5.6734045941       25.7622676215       30.6740363310  TIP3      2563            0.0000000000
     29941      2755  TIP3      H2              5.5654528578       24.6625780623       29.6267142950  TIP3      2563            0.0000000000
     29942      2756  TIP3      OH2             6.4486972652       32.8604273304       33.3840065261  TIP3      2564            0.0000000000
     29943      2756  TIP3      H1              6.3889252248       33.7638036019       33.0321303692  TIP3      2564            0.0000000000
     29944      2756  TIP3      H2              5.5608860754       32.7750651258       33.8124180678  TIP3      2564            0.0000000000
     29945      2757  TIP3      OH2             2.4406546189       32.5422430878       24.2720014850  TIP3      2565            0.0000000000
     29946      2757  TIP3      H1              2.2939712001       32.7366964719       23.3467454136  TIP3      2565            0.0000000000
     29947      2757  TIP3      H2              2.6116034693       33.3761410390       24.7499167902  TIP3      2565            0.0000000000
     29948      2758  TIP3      OH2            16.1287169932       34.1592620875       30.9780269987  TIP3      2566            0.0000000000
     29949      2758  TIP3      H1             15.1506639041       34.2356039086       31.0838712018  TIP3      2566            0.0000000000
     29950      2758  TIP3      H2             16.4017242755       35.0622285451       30.7350586733  TIP3      2566            0.0000000000
     29951      2759  TIP3      OH2            16.4488739982       22.4326207495       32.3314615959  TIP3      2567            0.0000000000
     29952      2759  TIP3      H1             15.7225521583       23.0640310977       32.2493707290  TIP3      2567            0.0000000000
     29953      2759  TIP3      H2             17.1606351857       22.8649685886       31.8151265791  TIP3      2567            0.0000000000
     29954      2760  TIP3      OH2             9.4255747834       20.5487248984       29.8102873231  TIP3      2568            0.0000000000
     29955      2760  TIP3      H1              9.2841378597       19.5861327598       29.7276207809  TIP3      2568            0.0000000000
     29956      2760  TIP3      H2              8.5434535361       20.8560539492       30.1014646047  TIP3      2568            0.0000000000
     29957      2761  TIP3      OH2            14.4165330880       35.6307290346       27.3540978627  TIP3      2569            0.0000000000
     29958      2761  TIP3      H1             14.9832310537       35.0215231678       26.8503181037  TIP3      2569            0.0000000000
     29959      2761  TIP3      H2             14.7993538959       36.4651618062       27.0876626559  TIP3      2569            0.0000000000
     29960      2762  TIP3      OH2            15.6698175908       33.7711880046       26.0174510937  TIP3      2570            0.0000000000
     29961      2762  TIP3      H1             15.2639323494       33.1077457945       25.4475918396  TIP3      2570            0.0000000000
     29962      2762  TIP3      H2             15.6400705037       33.3408155600       26.8960937188  TIP3      2570            0.0000000000
     29963      2763  TIP3      OH2            17.2241823225       32.5059081528       34.5366111723  TIP3      2571            0.0000000000
     29964      2763  TIP3      H1             17.3575430402       31.8138887665       33.8484452683  TIP3      2571            0.0000000000
     29965      2763  TIP3      H2             17.4517258828       33.3246214882       34.0720639722  TIP3      2571            0.0000000000
     29966      2764  TIP3      OH2            11.7489882810       29.3775576791       24.3201643313  TIP3      2572            0.0000000000
     29967      2764  TIP3      H1             11.0175700686       29.9287569660       23.9560798226  TIP3      2572            0.0000000000
     29968      2764  TIP3      H2             12.4039809185       29.4175925545       23.6014986729  TIP3      2572            0.0000000000
     29969      2765  TIP3      OH2            19.1017050959       28.7516400745       32.5318900600  TIP3      2573            0.0000000000
     29970      2765  TIP3      H1             18.4432599557       29.4701827142       32.6503177952  TIP3      2573            0.0000000000
     29971      2765  TIP3      H2             19.5966363836       29.0130015984       31.7371016097  TIP3      2573            0.0000000000
     29972      2766  TIP3      OH2            15.1319672345       29.5727682044       25.2352614856  TIP3      2574            0.0000000000
     29973      2766  TIP3      H1             14.4006260449       29.8125502075       25.8497408575  TIP3      2574            0.0000000000
     29974      2766  TIP3      H2             15.6210050889       28.9031981964       25.7556566522  TIP3      2574            0.0000000000
     29975      2767  TIP3      OH2            15.0912062831       27.7210001950       34.3259897826  TIP3      2575            0.0000000000
     29976      2767  TIP3      H1             15.1079242814       28.5220094433       34.8810012911  TIP3      2575            0.0000000000
     29977      2767  TIP3      H2             14.4529023738       28.0274103892       33.6548009026  TIP3      2575            0.0000000000
     29978      2768  TIP3      OH2             6.7600616189       30.2145460009       27.1887396672  TIP3      2576            0.0000000000
     29979      2768  TIP3      H1              6.4543821193       29.8547134733       26.3136574633  TIP3      2576            0.0000000000
     29980      2768  TIP3      H2              7.3983394314       29.5208824026       27.4689765433  TIP3      2576            0.0000000000
     29981      2769  TIP3      OH2             8.0893093685       33.6176761962       29.8223442880  TIP3      2577            0.0000000000
     29982      2769  TIP3      H1              8.0874795930       33.0765846783       29.0222981331  TIP3      2577            0.0000000000
     29983      2769  TIP3      H2              8.8649948742       33.2527433053       30.2883638859  TIP3      2577            0.0000000000
     29984      2770  TIP3      OH2             7.1053218063       28.9610220656       30.8012888428  TIP3      2578            0.0000000000
     29985      2770  TIP3      H1              7.6601402727       29.0674004315       30.0035590316  TIP3      2578            0.0000000000
     29986      2770  TIP3      H2              7.4881094143       29.6247705022       31.4158963289  TIP3      2578            0.0000000000
     29987      2771  TIP3      OH2            13.5449689891       34.5246794018       31.5282738854  TIP3      2579            0.0000000000
     29988      2771  TIP3      H1             13.1896084637       35.1510661698       32.1487542318  TIP3      2579            0.0000000000
     29989      2771  TIP3      H2             13.2475172784       33.6674287740       31.9204042762  TIP3      2579            0.0000000000
     29990      2772  TIP3      OH2             8.0510623282       33.3919155730       35.5005887983  TIP3      2580            0.0000000000
     29991      2772  TIP3      H1              7.6328564236       34.1433443102       35.9791995160  TIP3      2580            0.0000000000
     29992      2772  TIP3      H2              7.3835405336       33.1687438567       34.8001400988  TIP3      2580            0.0000000000
     29993      2773  TIP3      OH2            14.0277796411       28.7390465913       22.9100134540  TIP3      2581            0.0000000000
     29994      2773  TIP3      H1             14.5777237561       28.9283107218       23.7050577329  TIP3      2581            0.0000000000
     29995      2773  TIP3      H2             14.4551905313       29.2536574148       22.2155016430  TIP3      2581            0.0000000000
     29996      2774  TIP3      OH2             4.9935010937       29.5517123933       34.6646440651  TIP3      2582            0.0000000000
     29997      2774  TIP3      H1              5.0442598083       30.2210947283       35.3724451136  TIP3      2582            0.0000000000
     29998      2774  TIP3      H2              4.0561867641       29.6488708539       34.4399588976  TIP3      2582            0.0000000000
     29999      2775  TIP3      OH2            11.7011614089       35.4383892177       26.4516136631  TIP3      2583            0.0000000000
     30000      2775  TIP3      H1             12.2207077801       35.7989322042       27.1682482196  TIP3      2583            0.0000000000
     30001      2775  TIP3      H2             11.2158543288       36.1922008179       26.0821095648  TIP3      2583            0.0000000000
     30002      2776  TIP3      OH2             6.2856951176       35.3506089038       36.2373861350  TIP3      2584            0.0000000000
     30003      2776  TIP3      H1              6.2172669962       35.3115787237       35.2601879839  TIP3      2584            0.0000000000
     30004      2776  TIP3      H2              5.3456167865       35.2834242904       36.5035263953  TIP3      2584            0.0000000000
     30005      2777  TIP3      OH2             5.7245458276       29.3189705372       24.8347772364  TIP3      2585            0.0000000000
     30006      2777  TIP3      H1              5.5318551614       30.0235269472       24.2018068771  TIP3      2585            0.0000000000
     30007      2777  TIP3      H2              5.1605531761       28.6096449054       24.5017906326  TIP3      2585            0.0000000000
     30008      2778  TIP3      OH2             1.8314573371       31.6743705869       33.6489804719  TIP3      2586            0.0000000000
     30009      2778  TIP3      H1              1.3896404447       31.5880714053       32.7833760464  TIP3      2586            0.0000000000
     30010      2778  TIP3      H2              1.9068620299       30.7247928066       33.8674436366  TIP3      2586            0.0000000000
     30011      2779  TIP3      OH2             1.6157041427       34.3710618220       30.4667392060  TIP3      2587            0.0000000000
     30012      2779  TIP3      H1              2.5733868372       34.2907069375       30.3804934048  TIP3      2587            0.0000000000
     30013      2779  TIP3      H2              1.5583172463       35.1960548415       30.9617959477  TIP3      2587            0.0000000000
     30014      2780  TIP3      OH2            19.8039987590       35.0940660763       36.1513851934  TIP3      2588            0.0000000000
     30015      2780  TIP3      H1             19.7113045826       34.1307143770       36.0760307001  TIP3      2588            0.0000000000
     30016      2780  TIP3      H2             18.9378572669       35.3507984195       36.5322558315  TIP3      2588            0.0000000000
     30017      2781  TIP3      OH2            10.7736881059       34.6665713748       34.9820817806  TIP3      2589            0.0000000000
     30018      2781  TIP3      H1             10.8742328050       35.4713159394       35.4969083460  TIP3      2589            0.0000000000
     30019      2781  TIP3      H2              9.9264345428       34.2696903301       35.2565011973  TIP3      2589            0.0000000000
     30020      2782  TIP3      OH2            16.8064799442       26.3689665233       36.4962398180  TIP3      2590            0.0000000000
     30021      2782  TIP3      H1             16.5131059795       26.9910935565       35.8170727454  TIP3      2590            0.0000000000
     30022      2782  TIP3      H2             16.9640042614       25.5143369115       36.1224084424  TIP3      2590            0.0000000000
     30023      2783  TIP3      OH2             4.1072489263       33.0018185257       34.5996205655  TIP3      2591            0.0000000000
     30024      2783  TIP3      H1              4.3314882320       32.6117184701       35.4698486999  TIP3      2591            0.0000000000
     30025      2783  TIP3      H2              3.2477070631       32.5961560174       34.3695611482  TIP3      2591            0.0000000000
     30026      2784  TIP3      OH2             6.7925240096       21.4569289595       30.5417798589  TIP3      2592            0.0000000000
     30027      2784  TIP3      H1              5.8883064857       21.3324125376       30.1793752419  TIP3      2592            0.0000000000
     30028      2784  TIP3      H2              6.6677497002       22.2872654195       31.0284308873  TIP3      2592            0.0000000000
     30029      2785  TIP3      OH2            11.4372976002       21.1263310097       33.9119843148  TIP3      2593            0.0000000000
     30030      2785  TIP3      H1             11.8313659447       20.7040039869       34.6979728727  TIP3      2593            0.0000000000
     30031      2785  TIP3      H2             10.4660575536       20.9995398040       34.0540092596  TIP3      2593            0.0000000000
     30032      2786  TIP3      OH2            14.6923475466       24.9446481935       34.7628559258  TIP3      2594            0.0000000000
     30033      2786  TIP3      H1             14.1926712552       24.7650130007       35.5988350857  TIP3      2594            0.0000000000
     30034      2786  TIP3      H2             14.5739413796       25.8940395293       34.5913547832  TIP3      2594            0.0000000000
     30035      2787  TIP3      OH2             6.9011292004       26.4243174155       31.7942531681  TIP3      2595            0.0000000000
     30036      2787  TIP3      H1              6.1662044097       26.4114477000       32.4327636782  TIP3      2595            0.0000000000
     30037      2787  TIP3      H2              6.8536145506       27.3372223456       31.4273225274  TIP3      2595            0.0000000000
     30038      2788  TIP3      OH2             6.8538239624       26.5318947525       26.6750695053  TIP3      2596            0.0000000000
     30039      2788  TIP3      H1              5.9104101032       26.3100066930       26.5196907966  TIP3      2596            0.0000000000
     30040      2788  TIP3      H2              7.2544935483       26.2795729450       25.8339434139  TIP3      2596            0.0000000000
     30041      2789  TIP3      OH2            12.3425105928       27.0271978038       25.4008656948  TIP3      2597            0.0000000000
     30042      2789  TIP3      H1             11.9547554778       27.8745830782       25.0792035633  TIP3      2597            0.0000000000
     30043      2789  TIP3      H2             13.0706431658       26.8962131839       24.7755882613  TIP3      2597            0.0000000000
     30044      2790  TIP3      OH2            11.4502504084       27.2566885181       36.8738347734  TIP3      2598            0.0000000000
     30045      2790  TIP3      H1             10.9230618851       26.4809211545       37.1802278833  TIP3      2598            0.0000000000
     30046      2790  TIP3      H2             12.2922793310       27.1376769040       37.3508093039  TIP3      2598            0.0000000000
     30047      2791  TIP3      OH2            13.4064677821       26.5361434617       28.2645509764  TIP3      2599            0.0000000000
     30048      2791  TIP3      H1             13.1294848953       27.0875325908       27.5138755897  TIP3      2599            0.0000000000
     30049      2791  TIP3      H2             13.5077231874       25.6800567564       27.8027149225  TIP3      2599            0.0000000000
     30050      2792  TIP3      OH2             4.5243311073       26.6868273421       33.4856912038  TIP3      2600            0.0000000000
     30051      2792  TIP3      H1              4.5936301283       27.0909405219       34.3678638948  TIP3      2600            0.0000000000
     30052      2792  TIP3      H2              4.0789631188       25.8485367080       33.6854243264  TIP3      2600            0.0000000000
     30053      2793  TIP3      OH2             1.1831934980       23.7980154464       27.4352826628  TIP3      2601            0.0000000000
     30054      2793  TIP3      H1              1.8387053600       23.7615010835       28.1668522797  TIP3      2601            0.0000000000
     30055      2793  TIP3      H2              1.6495216942       23.4002628381       26.6850715706  TIP3      2601            0.0000000000
     30056      2794  TIP3      OH2            12.6101343552       28.1248627207       32.8400936219  TIP3      2602            0.0000000000
     30057      2794  TIP3      H1             12.9878806896       27.4424580213       32.2493224912  TIP3      2602            0.0000000000
     30058      2794  TIP3      H2             12.1509771705       27.5918803429       33.5133059831  TIP3      2602            0.0000000000
     30059      2795  TIP3      OH2             9.3955535837       24.0997288063       27.6818465662  TIP3      2603            0.0000000000
     30060      2795  TIP3      H1              8.4641593834       24.1040970102       27.9865100465  TIP3      2603            0.0000000000
     30061      2795  TIP3      H2              9.8986656458       23.9358950905       28.4932112547  TIP3      2603            0.0000000000
     30062      2796  TIP3      OH2             4.2300187791       25.6600359558       26.5026869315  TIP3      2604            0.0000000000
     30063      2796  TIP3      H1              3.3298090843       25.7941314652       26.1520470461  TIP3      2604            0.0000000000
     30064      2796  TIP3      H2              4.4987992784       24.7930056004       26.1584792257  TIP3      2604            0.0000000000
     30065      2797  TIP3      OH2            13.8160975732       23.3311161178       30.9112792983  TIP3      2605            0.0000000000
     30066      2797  TIP3      H1             13.1302611711       23.3864622849       31.6104645153  TIP3      2605            0.0000000000
     30067      2797  TIP3      H2             13.3091754081       23.0847632863       30.1249201909  TIP3      2605            0.0000000000
     30068      2798  TIP3      OH2             4.7068736042       31.4690190667       36.8089014362  TIP3      2606            0.0000000000
     30069      2798  TIP3      H1              5.4114751581       31.6893821036       37.4444688812  TIP3      2606            0.0000000000
     30070      2798  TIP3      H2              3.9144673802       31.5284672548       37.3852387240  TIP3      2606            0.0000000000
     30071      2799  TIP3      OH2            10.7073140077       26.8574153893       29.5745959287  TIP3      2607            0.0000000000
     30072      2799  TIP3      H1             11.2941422942       26.3180814372       29.0289013790  TIP3      2607            0.0000000000
     30073      2799  TIP3      H2             10.5539758369       26.3031990587       30.3504151836  TIP3      2607            0.0000000000
     30074      2800  TIP3      OH2             5.6889629170       23.0099167800       25.9349567049  TIP3      2608            0.0000000000
     30075      2800  TIP3      H1              5.3986889137       22.0823515588       26.0113856009  TIP3      2608            0.0000000000
     30076      2800  TIP3      H2              6.5101581894       22.9113053299       25.4359578016  TIP3      2608            0.0000000000
     30077      2801  TIP3      OH2             9.3372834313       25.1843730079       31.9765978010  TIP3      2609            0.0000000000
     30078      2801  TIP3      H1              8.5110118535       25.6991252247       32.0682441839  TIP3      2609            0.0000000000
     30079      2801  TIP3      H2              9.8893805873       25.5323455873       32.7037740013  TIP3      2609            0.0000000000
     30080      2802  TIP3      OH2             9.9367063787       31.2996863829       23.6996654749  TIP3      2610            0.0000000000
     30081      2802  TIP3      H1              9.0936299955       30.9820044684       23.3221422885  TIP3      2610            0.0000000000
     30082      2802  TIP3      H2              9.6754656737       31.5454777935       24.6025800285  TIP3      2610            0.0000000000
     30083      2803  TIP3      OH2            17.1055847655       30.6102174104       32.4730055526  TIP3      2611            0.0000000000
     30084      2803  TIP3      H1             17.6727487788       31.1013322952       31.8552450119  TIP3      2611            0.0000000000
     30085      2803  TIP3      H2             16.2466249869       30.6621431540       32.0060682826  TIP3      2611            0.0000000000
     30086      2804  TIP3      OH2            13.7531655144       24.2564619133       21.8355239649  TIP3      2612            0.0000000000
     30087      2804  TIP3      H1             12.8128950505       24.3739462097       21.7290536817  TIP3      2612            0.0000000000
     30088      2804  TIP3      H2             14.0454836982       25.1171521893       22.1903896267  TIP3      2612            0.0000000000
     30089      2805  TIP3      OH2            11.3911463777       31.6857965572       34.9031382232  TIP3      2613            0.0000000000
     30090      2805  TIP3      H1             11.0730093954       31.2525608495       35.7051548570  TIP3      2613            0.0000000000
     30091      2805  TIP3      H2             11.1731952841       32.6130823090       35.0251478809  TIP3      2613            0.0000000000
     30092      2806  TIP3      OH2            14.5146783390       26.1224640487       23.5327103978  TIP3      2614            0.0000000000
     30093      2806  TIP3      H1             15.4183170588       26.0265882361       23.8586742103  TIP3      2614            0.0000000000
     30094      2806  TIP3      H2             14.5270741658       26.9372270666       22.9909438159  TIP3      2614            0.0000000000
     30095      2807  TIP3      OH2             5.0269940470       30.7947806908       29.4724733328  TIP3      2615            0.0000000000
     30096      2807  TIP3      H1              5.7135435619       30.7243134587       28.7776012140  TIP3      2615            0.0000000000
     30097      2807  TIP3      H2              5.0876438331       29.9330666552       29.9189168309  TIP3      2615            0.0000000000
     30098      2808  TIP3      OH2            12.0573655988       32.8201926792       22.7930935723  TIP3      2616            0.0000000000
     30099      2808  TIP3      H1             11.6861099947       33.6975832080       23.0152666962  TIP3      2616            0.0000000000
     30100      2808  TIP3      H2             11.2429559672       32.2800415937       22.8837890029  TIP3      2616            0.0000000000
     30101      2809  TIP3      OH2             2.0129310731       29.2076375915       34.7446321712  TIP3      2617            0.0000000000
     30102      2809  TIP3      H1              2.2184108877       28.7641280410       35.5913566305  TIP3      2617            0.0000000000
     30103      2809  TIP3      H2              1.4167690399       28.5867399382       34.2965731097  TIP3      2617            0.0000000000
     30104      2810  TIP3      OH2             9.0337955403       28.7567258968       36.9176800175  TIP3      2618            0.0000000000
     30105      2810  TIP3      H1              8.7211466395       28.4634703937       36.0510240457  TIP3      2618            0.0000000000
     30106      2810  TIP3      H2              9.9629675045       28.4500968860       36.9138202659  TIP3      2618            0.0000000000
     30107      2811  TIP3      OH2            13.7080362189       34.1556227065       34.7982655751  TIP3      2619            0.0000000000
     30108      2811  TIP3      H1             12.7673121284       34.2373857716       34.6143218318  TIP3      2619            0.0000000000
     30109      2811  TIP3      H2             13.6827576932       34.3426752547       35.7681707691  TIP3      2619            0.0000000000
     30110      2812  TIP3      OH2            19.4155744826       32.1822591468       36.0562013344  TIP3      2620            0.0000000000
     30111      2812  TIP3      H1             18.4998979810       32.3390053734       35.7134879535  TIP3      2620            0.0000000000
     30112      2812  TIP3      H2             19.9285028317       32.0646842051       35.2351333093  TIP3      2620            0.0000000000
     30113      2813  TIP3      OH2            17.8372150175       35.0628938764       23.7094511467  TIP3      2621            0.0000000000
     30114      2813  TIP3      H1             17.2557717129       34.3497600237       24.0160456224  TIP3      2621            0.0000000000
     30115      2813  TIP3      H2             17.8865416929       34.8870619158       22.7723605479  TIP3      2621            0.0000000000
     30116      2814  TIP3      OH2            14.8851872489       29.9247949788       30.7594610844  TIP3      2622            0.0000000000
     30117      2814  TIP3      H1             13.9429694416       29.7088869821       30.6508894522  TIP3      2622            0.0000000000
     30118      2814  TIP3      H2             15.3083616440       29.1597132997       30.3306243540  TIP3      2622            0.0000000000
     30119      2815  TIP3      OH2             7.4311203215       34.2260531334       26.8206965915  TIP3      2623            0.0000000000
     30120      2815  TIP3      H1              7.9194072086       35.0411924377       26.6539494117  TIP3      2623            0.0000000000
     30121      2815  TIP3      H2              6.5386665906       34.4553621669       26.5489822257  TIP3      2623            0.0000000000
     30122      2816  TIP3      OH2             8.8741711127       31.9140606848       26.4418230179  TIP3      2624            0.0000000000
     30123      2816  TIP3      H1              8.5421401124       32.8330766205       26.4626344753  TIP3      2624            0.0000000000
     30124      2816  TIP3      H2              8.0945310973       31.4355061437       26.7791552014  TIP3      2624            0.0000000000
     30125      2817  TIP3      OH2             9.5716181744       35.7969360973       32.4796011800  TIP3      2625            0.0000000000
     30126      2817  TIP3      H1              9.7143227866       36.7502274554       32.4106969814  TIP3      2625            0.0000000000
     30127      2817  TIP3      H2              9.8830462546       35.6499276625       33.3847661254  TIP3      2625            0.0000000000
     30128      2818  TIP3      OH2            12.8106337999       32.1128884871       32.4111019096  TIP3      2626            0.0000000000
     30129      2818  TIP3      H1             12.4593784397       31.8899320477       33.2963230415  TIP3      2626            0.0000000000
     30130      2818  TIP3      H2             13.4391051987       31.3960176160       32.2375607532  TIP3      2626            0.0000000000
     30131      2819  TIP3      OH2            15.1046589404       33.0624794399       21.4502342570  TIP3      2627            0.0000000000
     30132      2819  TIP3      H1             15.3783088857       32.7073935356       22.3185289114  TIP3      2627            0.0000000000
     30133      2819  TIP3      H2             14.1428272540       33.0195032309       21.5832148898  TIP3      2627            0.0000000000
     30134      2820  TIP3      OH2             3.6842483898       23.9412448657       34.2937906259  TIP3      2628            0.0000000000
     30135      2820  TIP3      H1              2.7797585598       24.2878177302       34.2576033047  TIP3      2628            0.0000000000
     30136      2820  TIP3      H2              3.5625327180       23.0909738797       34.7444855476  TIP3      2628            0.0000000000
     30137      2821  TIP3      OH2            15.9226922569       31.7609919625       23.7291802349  TIP3      2629            0.0000000000
     30138      2821  TIP3      H1             15.6533147576       31.0192287644       24.3031067149  TIP3      2629            0.0000000000
     30139      2821  TIP3      H2             16.8565269315       31.8489683160       23.9690390732  TIP3      2629            0.0000000000
     30140      2822  TIP3      OH2             3.2583389407       35.6881525892       32.7165569055  TIP3      2630            0.0000000000
     30141      2822  TIP3      H1              3.5870640536       34.7825796832       32.7338217699  TIP3      2630            0.0000000000
     30142      2822  TIP3      H2              3.5246900880       36.0245268647       33.5851910297  TIP3      2630            0.0000000000
     30143      2823  TIP3      OH2            12.4081212280       23.7137563244       33.2353182744  TIP3      2631            0.0000000000
     30144      2823  TIP3      H1             13.1207063652       23.7733126484       33.8844886927  TIP3      2631            0.0000000000
     30145      2823  TIP3      H2             12.0230467163       22.8366142680       33.4365000439  TIP3      2631            0.0000000000
     30146      2824  TIP3      OH2            13.1884110606       23.3110872855       24.3258864966  TIP3      2632            0.0000000000
     30147      2824  TIP3      H1             13.4046728057       23.7904857175       23.5084937379  TIP3      2632            0.0000000000
     30148      2824  TIP3      H2             13.7434639963       23.7350537985       24.9949647743  TIP3      2632            0.0000000000
     30149      2825  TIP3      OH2            10.9282345136       35.6082650245       23.3280323031  TIP3      2633            0.0000000000
     30150      2825  TIP3      H1              9.9981820713       35.8642460854       23.1988077449  TIP3      2633            0.0000000000
     30151      2825  TIP3      H2             11.3534028901       35.8809351044       22.4951312891  TIP3      2633            0.0000000000
     30152      2826  TIP3      OH2            10.3773045168       25.0188744782       25.1319838871  TIP3      2634            0.0000000000
     30153      2826  TIP3      H1             11.1511775857       25.6124793603       25.1762226863  TIP3      2634            0.0000000000
     30154      2826  TIP3      H2             10.0987042260       24.9037706999       26.0522613971  TIP3      2634            0.0000000000
     30155      2827  TIP3      OH2            10.9240711398       26.0499937660       34.3419579077  TIP3      2635            0.0000000000
     30156      2827  TIP3      H1             11.0169330082       26.6143609819       35.1337681129  TIP3      2635            0.0000000000
     30157      2827  TIP3      H2             11.5953304199       25.3614943238       34.4349329653  TIP3      2635            0.0000000000
     30158      2828  TIP3      OH2            11.2526309220       22.0962071088       26.0707139336  TIP3      2636            0.0000000000
     30159      2828  TIP3      H1             10.8969044537       22.7640023162       26.6799120717  TIP3      2636            0.0000000000
     30160      2828  TIP3      H2             11.9120002499       22.6417463607       25.5869634037  TIP3      2636            0.0000000000
     30161      2829  TIP3      OH2             8.1586766850      -36.4723050002       23.1126548275  TIP3      2637            0.0000000000
     30162      2829  TIP3      H1              8.3894964038      -35.6517016933       22.6735650436  TIP3      2637            0.0000000000
     30163      2829  TIP3      H2              8.0120026524      -36.2011608237       24.0328301051  TIP3      2637            0.0000000000
     30164      2830  TIP3      OH2            17.1054796278       23.9087187069       35.1743984503  TIP3      2638            0.0000000000
     30165      2830  TIP3      H1             16.1850340295       24.2503525021       35.0636828497  TIP3      2638            0.0000000000
     30166      2830  TIP3      H2             17.4198352635       23.9357572107       34.2578355201  TIP3      2638            0.0000000000
     30167      2831  TIP3      OH2            15.7032989132       27.7248285604       29.2280736839  TIP3      2639            0.0000000000
     30168      2831  TIP3      H1             14.9029374094       27.2629340196       28.9166469293  TIP3      2639            0.0000000000
     30169      2831  TIP3      H2             16.1935042468       27.0236829967       29.7157385520  TIP3      2639            0.0000000000
     30170      2832  TIP3      OH2             4.2821458365       21.0976692575       29.6628941055  TIP3      2640            0.0000000000
     30171      2832  TIP3      H1              4.0809254273       21.1160661034       28.6996955331  TIP3      2640            0.0000000000
     30172      2832  TIP3      H2              3.8645828688       20.2494837341       29.9231214474  TIP3      2640            0.0000000000
     30173      2833  TIP3      OH2             3.1885732382       34.9974887716       25.6827363871  TIP3      2641            0.0000000000
     30174      2833  TIP3      H1              2.3684093636       35.4891256325       25.8051440867  TIP3      2641            0.0000000000
     30175      2833  TIP3      H2              3.7676869643       35.5506004545       25.1486041139  TIP3      2641            0.0000000000
     30176      2834  TIP3      OH2             7.3994218717       36.3003092907       38.9524081795  TIP3      2642            0.0000000000
     30177      2834  TIP3      H1              8.2446464470       35.8754980474       39.0974642890  TIP3      2642            0.0000000000
     30178      2834  TIP3      H2              7.2976219905       36.1443308592       37.9889093675  TIP3      2642            0.0000000000
     30179      2835  TIP3      OH2            10.9787642887       34.9233465562       20.7562046409  TIP3      2643            0.0000000000
     30180      2835  TIP3      H1             10.2673497759       35.4649056218       20.4368098428  TIP3      2643            0.0000000000
     30181      2835  TIP3      H2             11.7008232955       35.2134520005       20.1830460394  TIP3      2643            0.0000000000
     30182      2836  TIP3      OH2            13.7058729291       34.6320937310       37.3158656753  TIP3      2644            0.0000000000
     30183      2836  TIP3      H1             13.2444423660       33.9323171777       37.8048234790  TIP3      2644            0.0000000000
     30184      2836  TIP3      H2             14.3331273423       34.9841385301       37.9582872725  TIP3      2644            0.0000000000
     30185      2837  TIP3      OH2            16.2586875729       35.3972634421       21.1677514248  TIP3      2645            0.0000000000
     30186      2837  TIP3      H1             15.9311600213       34.5489508352       20.8389881073  TIP3      2645            0.0000000000
     30187      2837  TIP3      H2             16.2271289324       35.9025497847       20.3192362868  TIP3      2645            0.0000000000
     30188      2838  TIP3      OH2             2.3549740853       31.4161945581       38.0867737637  TIP3      2646            0.0000000000
     30189      2838  TIP3      H1              2.5176061994       30.5089886620       37.7616080820  TIP3      2646            0.0000000000
     30190      2838  TIP3      H2              1.6287591750       31.7177139816       37.5120513164  TIP3      2646            0.0000000000
     30191      2839  TIP3      OH2             9.0896533405       31.4143920688       37.4553705865  TIP3      2647            0.0000000000
     30192      2839  TIP3      H1              8.7270947684       31.7215076059       36.6047167276  TIP3      2647            0.0000000000
     30193      2839  TIP3      H2              9.1576368697       30.4344852025       37.3560068321  TIP3      2647            0.0000000000
     30194      2840  TIP3      OH2            14.7581113250       31.3026240523       34.8426815480  TIP3      2648            0.0000000000
     30195      2840  TIP3      H1             15.5604978574       31.8638229617       34.7978627984  TIP3      2648            0.0000000000
     30196      2840  TIP3      H2             14.0636379038       31.9677010383       34.9167850593  TIP3      2648            0.0000000000
     30197      2841  TIP3      OH2             3.2320318671       28.6700657063       37.4724989694  TIP3      2649            0.0000000000
     30198      2841  TIP3      H1              3.6864373134       27.8223134809       37.3863991520  TIP3      2649            0.0000000000
     30199      2841  TIP3      H2              3.0476097005       28.6903782914       38.4316032894  TIP3      2649            0.0000000000
     30200      2842  TIP3      OH2             7.1743672389       27.6162783738       34.8366074330  TIP3      2650            0.0000000000
     30201      2842  TIP3      H1              6.5754618671       28.3346400042       35.0955859349  TIP3      2650            0.0000000000
     30202      2842  TIP3      H2              7.5653431437       27.9807425094       34.0239974788  TIP3      2650            0.0000000000
     30203      2843  TIP3      OH2            12.2525477187       30.1816935537       38.2291275704  TIP3      2651            0.0000000000
     30204      2843  TIP3      H1             13.2096583838       30.1583968026       38.0547855455  TIP3      2651            0.0000000000
     30205      2843  TIP3      H2             12.0963251980       29.3966534443       38.7751188275  TIP3      2651            0.0000000000
     30206      2844  TIP3      OH2            18.2876168013       30.3521709285       20.1946200208  TIP3      2652            0.0000000000
     30207      2844  TIP3      H1             18.1113536037       29.9083148456       19.3595582033  TIP3      2652            0.0000000000
     30208      2844  TIP3      H2             18.3837878172       31.2702358645       19.9383810793  TIP3      2652            0.0000000000
     30209      2845  TIP3      OH2             7.5731770050       24.9993525944       35.8841675469  TIP3      2653            0.0000000000
     30210      2845  TIP3      H1              7.6939660224       24.2792731306       35.2391389748  TIP3      2653            0.0000000000
     30211      2845  TIP3      H2              7.5355692076       25.8059185466       35.3336510501  TIP3      2653            0.0000000000
     30212      2846  TIP3      OH2             7.9803408895       23.3710062190       33.4433329769  TIP3      2654            0.0000000000
     30213      2846  TIP3      H1              8.4914679487       23.8359860825       32.7389476564  TIP3      2654            0.0000000000
     30214      2846  TIP3      H2              7.0887310588       23.2901426546       33.0331607725  TIP3      2654            0.0000000000
     30215      2847  TIP3      OH2             9.5212409422       28.8511736387       33.6844781516  TIP3      2655            0.0000000000
     30216      2847  TIP3      H1             10.2769742797       28.6904760117       33.1096214406  TIP3      2655            0.0000000000
     30217      2847  TIP3      H2              9.1613652024       29.6914110648       33.3552496541  TIP3      2655            0.0000000000
     30218      2848  TIP3      OH2            13.9407549614       26.6191322348       38.6556576294  TIP3      2656            0.0000000000
     30219      2848  TIP3      H1             14.1548890059       25.6772379209       38.5699326526  TIP3      2656            0.0000000000
     30220      2848  TIP3      H2             14.8192533196       27.0431099843       38.6484681957  TIP3      2656            0.0000000000
     30221      2849  TIP3      OH2            15.2314650624       29.4312577601       36.7911319090  TIP3      2657            0.0000000000
     30222      2849  TIP3      H1             15.0290697698       30.1534499239       36.1715020736  TIP3      2657            0.0000000000
     30223      2849  TIP3      H2             16.1987295151       29.3569236656       36.6607651788  TIP3      2657            0.0000000000
     30224      2850  TIP3      OH2             6.0516567122       26.2305969622       37.8380850839  TIP3      2658            0.0000000000
     30225      2850  TIP3      H1              5.2689037372       25.6745977924       37.6335501290  TIP3      2658            0.0000000000
     30226      2850  TIP3      H2              6.6878619682       25.8805851681       37.1843996307  TIP3      2658            0.0000000000
     30227      2851  TIP3      OH2             8.7658622589       20.8065017587       33.8493474821  TIP3      2659            0.0000000000
     30228      2851  TIP3      H1              8.5985499205       21.7709216169       33.7407591430  TIP3      2659            0.0000000000
     30229      2851  TIP3      H2              8.0200727312       20.4452912907       33.3386429451  TIP3      2659            0.0000000000
     30230      2852  TIP3      OH2            10.0455224042       25.1392413702       37.4682816019  TIP3      2660            0.0000000000
     30231      2852  TIP3      H1              9.7275367335       24.9190714673       38.3637075547  TIP3      2660            0.0000000000
     30232      2852  TIP3      H2              9.2633612711       24.9472387301       36.9139690498  TIP3      2660            0.0000000000
     30233      2853  TIP3      OH2            12.7562186404       24.2749349071       36.5292948882  TIP3      2661            0.0000000000
     30234      2853  TIP3      H1             11.7958739346       24.3306040513       36.6617788651  TIP3      2661            0.0000000000
     30235      2853  TIP3      H2             13.0337298232       23.6459905068       37.2213598019  TIP3      2661            0.0000000000
     30236      2854  TIP3      OH2            14.3178244691       22.9075984987       38.4542133991  TIP3      2662            0.0000000000
     30237      2854  TIP3      H1             14.2950225569       21.9312976283       38.4867175326  TIP3      2662            0.0000000000
     30238      2854  TIP3      H2             14.0767010999       23.1982070598       39.3656538330  TIP3      2662            0.0000000000
     30239      2855  TIP3      OH2             4.1281507937       24.1750392164       37.5572049971  TIP3      2663            0.0000000000
     30240      2855  TIP3      H1              4.3781645351       23.4347614808       36.9737803365  TIP3      2663            0.0000000000
     30241      2855  TIP3      H2              4.0458101194       23.7339507565       38.4296207273  TIP3      2663            0.0000000000
     30242      2856  TIP3      OH2             8.9853478866       20.1879121836       36.5375070009  TIP3      2664            0.0000000000
     30243      2856  TIP3      H1              9.6661371854       19.4832937830       36.5146523017  TIP3      2664            0.0000000000
     30244      2856  TIP3      H2              8.8774193923       20.3527583955       35.5815205437  TIP3      2664            0.0000000000
     30245      2857  TIP3      OH2             9.3328149109       21.8032862421       38.6296511080  TIP3      2665            0.0000000000
     30246      2857  TIP3      H1              9.1760167033       21.3035024380       37.7918582458  TIP3      2665            0.0000000000
     30247      2857  TIP3      H2              8.7548050070       22.5822041940       38.5247906317  TIP3      2665            0.0000000000
     30248      2858  TIP3      OH2             3.1549254456       33.1004650263       20.5957322373  TIP3      2666            0.0000000000
     30249      2858  TIP3      H1              3.4490033823       33.2136122737       21.5076402418  TIP3      2666            0.0000000000
     30250      2858  TIP3      H2              2.5173472158       32.3699430121       20.5784329302  TIP3      2666            0.0000000000
     30251      2859  TIP3      OH2            17.5104617758       33.0035835361       38.6215845865  TIP3      2667            0.0000000000
     30252      2859  TIP3      H1             16.6530868339       32.8719462204       39.0757956141  TIP3      2667            0.0000000000
     30253      2859  TIP3      H2             17.9243195715       33.7304065913       39.1381465605  TIP3      2667            0.0000000000
     30254      2860  TIP3      OH2            18.8640189141       31.2086321070       24.1210911819  TIP3      2668            0.0000000000
     30255      2860  TIP3      H1             19.6667997318       31.6753335994       24.3504390542  TIP3      2668            0.0000000000
     30256      2860  TIP3      H2             18.8387126710       30.5024317080       24.8066908117  TIP3      2668            0.0000000000
     30257      2861  TIP3      OH2            19.2032510670       29.3503528893       26.0046253226  TIP3      2669            0.0000000000
     30258      2861  TIP3      H1             18.4645625628       28.8204701074       26.3686731195  TIP3      2669            0.0000000000
     30259      2861  TIP3      H2             19.8109947485       29.4236364205       26.7454529244  TIP3      2669            0.0000000000
     30260      2862  TIP3      OH2            18.9679071003       32.0268991352       31.0054422924  TIP3      2670            0.0000000000
     30261      2862  TIP3      H1             19.7703959225       31.6374202851       30.6312089806  TIP3      2670            0.0000000000
     30262      2862  TIP3      H2             19.0793844032       32.9849177827       30.8412543688  TIP3      2670            0.0000000000
     30263      2863  TIP3      OH2            17.4708855439       34.9230568759       33.2958560573  TIP3      2671            0.0000000000
     30264      2863  TIP3      H1             16.7776325710       35.2759782762       33.8518330955  TIP3      2671            0.0000000000
     30265      2863  TIP3      H2             16.9649967686       34.5279063182       32.5502249736  TIP3      2671            0.0000000000
     30266      2864  TIP3      OH2            19.5498350425       29.1753055718       22.3810118259  TIP3      2672            0.0000000000
     30267      2864  TIP3      H1             18.9546240736       29.4822227462       21.6649762791  TIP3      2672            0.0000000000
     30268      2864  TIP3      H2             19.3955259525       29.8376940081       23.0730102352  TIP3      2672            0.0000000000
     30269      2865  TIP3      OH2            16.9784820239       27.8185812674       26.5599549805  TIP3      2673            0.0000000000
     30270      2865  TIP3      H1             16.9003752864       26.8520444540       26.5636850457  TIP3      2673            0.0000000000
     30271      2865  TIP3      H2             16.6699600003       28.0599398424       27.4528031003  TIP3      2673            0.0000000000
     30272      2866  TIP3      OH2             2.0239174540       29.8981109763       30.6235804895  TIP3      2674            0.0000000000
     30273      2866  TIP3      H1              2.2023438973       29.8214697844       29.6573613845  TIP3      2674            0.0000000000
     30274      2866  TIP3      H2              2.9194647724       29.7265708505       30.9776336190  TIP3      2674            0.0000000000
     30275      2867  TIP3      OH2            17.9298958034       29.8716205710       35.9254080268  TIP3      2675            0.0000000000
     30276      2867  TIP3      H1             18.3453220135       29.0915535723       36.3714376329  TIP3      2675            0.0000000000
     30277      2867  TIP3      H2             18.4912008030       30.5837668352       36.2683821230  TIP3      2675            0.0000000000
     30278      2868  TIP3      OH2            19.5763211994       27.5200565605       36.3513043917  TIP3      2676            0.0000000000
     30279      2868  TIP3      H1             18.6734825842       27.3937880584       36.7202154177  TIP3      2676            0.0000000000
     30280      2868  TIP3      H2             20.0352888341       26.8041220752       36.8236270512  TIP3      2676            0.0000000000
     30281      2869  TIP3      OH2            17.3312636340       25.9577446937       30.4902049130  TIP3      2677            0.0000000000
     30282      2869  TIP3      H1             18.2951880310       26.1695548033       30.4437771784  TIP3      2677            0.0000000000
     30283      2869  TIP3      H2             17.1581099132       26.1054680820       31.4376680131  TIP3      2677            0.0000000000
     30284      2870  TIP3      OH2            17.3866183125       26.6631436561       33.1833626066  TIP3      2678            0.0000000000
     30285      2870  TIP3      H1             16.5363421283       26.9515441997       33.5934881757  TIP3      2678            0.0000000000
     30286      2870  TIP3      H2             17.8370014671       27.5305926438       33.0567989704  TIP3      2678            0.0000000000
     30287      2871  TIP3      OH2             1.6382930776       25.1821469585       36.7501004209  TIP3      2679            0.0000000000
     30288      2871  TIP3      H1              2.5802821545       25.0102023248       36.9627081046  TIP3      2679            0.0000000000
     30289      2871  TIP3      H2              1.2233629258       24.3613065307       37.0914919706  TIP3      2679            0.0000000000
     30290      2872  TIP3      OH2            19.6846375981       20.6969302569       38.5827964345  TIP3      2680            0.0000000000
     30291      2872  TIP3      H1             20.0263947896       20.0361127685       37.9679670725  TIP3      2680            0.0000000000
     30292      2872  TIP3      H2             19.7732566888       21.5255997464       38.0703656737  TIP3      2680            0.0000000000
     30293      2873  TIP3      OH2             2.8387672616       23.4875584474       29.6317469460  TIP3      2681            0.0000000000
     30294      2873  TIP3      H1              3.3073551883       22.6656897799       29.8878841048  TIP3      2681            0.0000000000
     30295      2873  TIP3      H2              3.3885731454       24.1787645325       30.0243118223  TIP3      2681            0.0000000000
     30296      2874  TIP3      OH2             1.1251849549       26.4844348049       30.6901763980  TIP3      2682            0.0000000000
     30297      2874  TIP3      H1              1.6771648620       26.2413801326       29.9155353078  TIP3      2682            0.0000000000
     30298      2874  TIP3      H2              1.5923829227       27.2989999307       30.9298046995  TIP3      2682            0.0000000000
     30299      2875  TIP3      OH2            19.1920361826       22.7895134393       36.9555720946  TIP3      2683            0.0000000000
     30300      2875  TIP3      H1             18.2613266914       23.1094700750       36.9131589662  TIP3      2683            0.0000000000
     30301      2875  TIP3      H2             19.2211529753       22.2676246369       36.1397285895  TIP3      2683            0.0000000000
     30302      2876  TIP3      OH2             1.4850739025       22.7836985443       24.7330998010  TIP3      2684            0.0000000000
     30303      2876  TIP3      H1              0.5317056345       22.9185709407       24.6177048157  TIP3      2684            0.0000000000
     30304      2876  TIP3      H2              1.9536659835       23.2044939179       24.0280392146  TIP3      2684            0.0000000000
     30305      2877  TIP3      OH2             1.4537171743       21.4032391177       33.0358157119  TIP3      2685            0.0000000000
     30306      2877  TIP3      H1              0.7864853888       21.1975188114       33.7133037197  TIP3      2685            0.0000000000
     30307      2877  TIP3      H2              0.9932630265       22.0743170902       32.4937458879  TIP3      2685            0.0000000000
     30308      2878  TIP3      OH2             3.6661303432       34.6683415783       37.2220108794  TIP3      2686            0.0000000000
     30309      2878  TIP3      H1              2.8206230327       34.8015888960       36.7582021228  TIP3      2686            0.0000000000
     30310      2878  TIP3      H2              3.3943606656       34.4996976979       38.1285403612  TIP3      2686            0.0000000000
     30311      2879  TIP3      OH2             6.6181436157       35.6038725492       33.5439026790  TIP3      2687            0.0000000000
     30312      2879  TIP3      H1              6.1788067397       36.3871055228       33.1799421461  TIP3      2687            0.0000000000
     30313      2879  TIP3      H2              7.4866605754       35.5980391204       33.1153402254  TIP3      2687            0.0000000000
     30314      2880  TIP3      OH2            18.2107429362       20.8955948679       34.7926454330  TIP3      2688            0.0000000000
     30315      2880  TIP3      H1             17.3810974277       21.2056617708       34.3864836058  TIP3      2688            0.0000000000
     30316      2880  TIP3      H2             18.3812074109       20.0848270989       34.2640470585  TIP3      2688            0.0000000000
     30317      2881  TIP3      OH2             5.7718243227       35.9654731107       28.8524257639  TIP3      2689            0.0000000000
     30318      2881  TIP3      H1              5.3909617372       35.1982037744       29.3069722976  TIP3      2689            0.0000000000
     30319      2881  TIP3      H2              6.3640766370       36.3166973252       29.5418881801  TIP3      2689            0.0000000000
     30320      2882  TIP3      OH2            11.6044127912       22.3427028247       29.0855059427  TIP3      2690            0.0000000000
     30321      2882  TIP3      H1             10.9182092975       21.7036969958       29.3380444098  TIP3      2690            0.0000000000
     30322      2882  TIP3      H2             12.1550339417       21.8163516939       28.4927758689  TIP3      2690            0.0000000000
     30323      2883  TIP3      OH2            16.7228836828       20.3979995008       29.1719556610  TIP3      2691            0.0000000000
     30324      2883  TIP3      H1             17.3490931004       20.9786522922       28.6663318175  TIP3      2691            0.0000000000
     30325      2883  TIP3      H2             15.8573655419       20.7626164795       28.8969672140  TIP3      2691            0.0000000000
     30326      2884  TIP3      OH2            18.4280987705       21.6193396373       27.4880133312  TIP3      2692            0.0000000000
     30327      2884  TIP3      H1             19.0932594887       21.0732469688       27.0220968203  TIP3      2692            0.0000000000
     30328      2884  TIP3      H2             18.8846018376       22.4648712378       27.5648501956  TIP3      2692            0.0000000000
     30329      2885  TIP3      OH2             3.9647506732       20.9893653576       26.9131260284  TIP3      2693            0.0000000000
     30330      2885  TIP3      H1              3.1607487511       20.7556851965       26.4143224701  TIP3      2693            0.0000000000
     30331      2885  TIP3      H2              4.4292783259       20.1274972258       26.8780894724  TIP3      2693            0.0000000000
     30332      2886  TIP3      OH2             8.4377104214       20.9083209319       26.7072584447  TIP3      2694            0.0000000000
     30333      2886  TIP3      H1              9.3471663879       21.2544852363       26.6469728012  TIP3      2694            0.0000000000
     30334      2886  TIP3      H2              8.4037531371       20.6794666983       27.6386159612  TIP3      2694            0.0000000000
     30335      2887  TIP3      OH2            14.1277008965       20.9085480646       28.3658209506  TIP3      2695            0.0000000000
     30336      2887  TIP3      H1             14.0964616876       21.0175064980       27.4057273650  TIP3      2695            0.0000000000
     30337      2887  TIP3      H2             13.7662316401       19.9974107493       28.4835373556  TIP3      2695            0.0000000000
     30338      2888  TIP3      OH2            15.4403741114       20.9401346740       24.0478570023  TIP3      2696            0.0000000000
     30339      2888  TIP3      H1             14.6915856788       21.5243722249       23.8891557583  TIP3      2696            0.0000000000
     30340      2888  TIP3      H2             14.9891762955       20.0891795036       24.2305774569  TIP3      2696            0.0000000000
     30341      2889  TIP3      OH2             4.7046672836       22.7498158882       21.1407485305  TIP3      2697            0.0000000000
     30342      2889  TIP3      H1              5.0818284232       21.9903101716       20.6636911652  TIP3      2697            0.0000000000
     30343      2889  TIP3      H2              5.3184726576       22.9450067728       21.8350913118  TIP3      2697            0.0000000000
     30344      2890  TIP3      OH2             3.8522260077       21.5039633162       36.3842459216  TIP3      2698            0.0000000000
     30345      2890  TIP3      H1              3.4732513844       20.7098358547       36.8060643057  TIP3      2698            0.0000000000
     30346      2890  TIP3      H2              4.7671737973       21.4688065909       36.7488853890  TIP3      2698            0.0000000000
     30347      2891  TIP3      OH2             5.8578540292       20.8969730334       38.0257987269  TIP3      2699            0.0000000000
     30348      2891  TIP3      H1              6.7419225422       20.5493253532       37.7838403929  TIP3      2699            0.0000000000
     30349      2891  TIP3      H2              5.4810685976       20.0937166356       38.4376606704  TIP3      2699            0.0000000000
     30350      2892  TIP3      OH2            14.2612005540       20.1837319043       38.1726644061  TIP3      2700            0.0000000000
     30351      2892  TIP3      H1             14.3598379868       19.7059664682       39.0178490129  TIP3      2700            0.0000000000
     30352      2892  TIP3      H2             15.1771346042       20.1525195440       37.8249120768  TIP3      2700            0.0000000000
     30353      2893  TIP3      OH2            17.3033277651      -36.8402755167       36.9884689367  TIP3      2701            0.0000000000
     30354      2893  TIP3      H1             16.6749551527      -36.9766286507       36.2729920292  TIP3      2701            0.0000000000
     30355      2893  TIP3      H2             17.4278911873      -35.8782381271       36.9789122550  TIP3      2701            0.0000000000
     30356      2894  TIP3      OH2            31.9015475215       30.0827571630       26.8057188499  TIP3      2702            0.0000000000
     30357      2894  TIP3      H1             31.9384201173       31.0681108287       26.7717420805  TIP3      2702            0.0000000000
     30358      2894  TIP3      H2             31.1711590108       29.8911614801       26.2283953679  TIP3      2702            0.0000000000
     30359      2895  TIP3      OH2            30.7681815026       29.3647285760       30.2752526351  TIP3      2703            0.0000000000
     30360      2895  TIP3      H1             30.7519689797       28.7208372886       30.9979614566  TIP3      2703            0.0000000000
     30361      2895  TIP3      H2             30.4415247918       28.8502612941       29.5225897412  TIP3      2703            0.0000000000
     30362      2896  TIP3      OH2            23.1234362007       29.0624947562       31.8367736541  TIP3      2704            0.0000000000
     30363      2896  TIP3      H1             23.1980857093       28.3666015188       32.5272846306  TIP3      2704            0.0000000000
     30364      2896  TIP3      H2             23.8881736384       29.6052184104       32.0694186891  TIP3      2704            0.0000000000
     30365      2897  TIP3      OH2            34.4692473188       32.2926655606       28.5671046754  TIP3      2705            0.0000000000
     30366      2897  TIP3      H1             34.0573901600       31.5818702991       29.0659043722  TIP3      2705            0.0000000000
     30367      2897  TIP3      H2             34.5023671059       33.0093877649       29.2201838565  TIP3      2705            0.0000000000
     30368      2898  TIP3      OH2            24.0324741553       33.4825985454       30.3028929155  TIP3      2706            0.0000000000
     30369      2898  TIP3      H1             23.7886307425       32.5638885605       30.0431414701  TIP3      2706            0.0000000000
     30370      2898  TIP3      H2             24.9956076324       33.3084086351       30.4212174324  TIP3      2706            0.0000000000
     30371      2899  TIP3      OH2            29.1368088680       31.7441821170       30.7597483634  TIP3      2707            0.0000000000
     30372      2899  TIP3      H1             29.4851497762       31.1292219934       30.0974666915  TIP3      2707            0.0000000000
     30373      2899  TIP3      H2             29.9414135632       31.9361903165       31.2679938318  TIP3      2707            0.0000000000
     30374      2900  TIP3      OH2            32.3193040336       26.2333809932       31.0561876190  TIP3      2708            0.0000000000
     30375      2900  TIP3      H1             32.4798272205       25.2722456478       31.0491110486  TIP3      2708            0.0000000000
     30376      2900  TIP3      H2             32.2173082938       26.3722404101       30.0937550149  TIP3      2708            0.0000000000
     30377      2901  TIP3      OH2            25.4562362482       24.2990131747       28.2917152997  TIP3      2709            0.0000000000
     30378      2901  TIP3      H1             25.5521019331       25.1522980361       27.8352274301  TIP3      2709            0.0000000000
     30379      2901  TIP3      H2             25.0267999999       23.7457214745       27.6040051579  TIP3      2709            0.0000000000
     30380      2902  TIP3      OH2            33.1835292924       24.4295432369       26.6949935810  TIP3      2710            0.0000000000
     30381      2902  TIP3      H1             33.8370197419       24.0832025456       27.3544868434  TIP3      2710            0.0000000000
     30382      2902  TIP3      H2             33.7570582122       24.9334197146       26.1294254130  TIP3      2710            0.0000000000
     30383      2903  TIP3      OH2            22.0548340851       26.7116255468       29.0702001744  TIP3      2711            0.0000000000
     30384      2903  TIP3      H1             22.7368516161       26.1570971200       29.4852013298  TIP3      2711            0.0000000000
     30385      2903  TIP3      H2             22.0904693901       26.4387908715       28.1503894407  TIP3      2711            0.0000000000
     30386      2904  TIP3      OH2            27.2073996618       28.2664100470       28.3146333089  TIP3      2712            0.0000000000
     30387      2904  TIP3      H1             27.8776921618       27.7035352614       28.7473939139  TIP3      2712            0.0000000000
     30388      2904  TIP3      H2             26.6760941490       27.5971379396       27.8406160646  TIP3      2712            0.0000000000
     30389      2905  TIP3      OH2            24.3400148319       23.2214636084       32.3450946824  TIP3      2713            0.0000000000
     30390      2905  TIP3      H1             24.0605452353       23.7826188569       31.5958306957  TIP3      2713            0.0000000000
     30391      2905  TIP3      H2             23.6457778465       23.4475137558       33.0106916607  TIP3      2713            0.0000000000
     30392      2906  TIP3      OH2            31.6257910835       32.6868961753       25.8906672412  TIP3      2714            0.0000000000
     30393      2906  TIP3      H1             31.3570063412       32.4603494594       24.9972767805  TIP3      2714            0.0000000000
     30394      2906  TIP3      H2             31.3120140318       33.6104746057       25.9652472380  TIP3      2714            0.0000000000
     30395      2907  TIP3      OH2            26.8520243620       30.8433477608       32.5856793876  TIP3      2715            0.0000000000
     30396      2907  TIP3      H1             26.1470994936       31.4859087938       32.7979754393  TIP3      2715            0.0000000000
     30397      2907  TIP3      H2             27.5554545037       31.4405814693       32.2888804756  TIP3      2715            0.0000000000
     30398      2908  TIP3      OH2            34.6771355743       23.7200449880       28.7696100155  TIP3      2716            0.0000000000
     30399      2908  TIP3      H1             34.7152949687       22.9017597083       29.2660494351  TIP3      2716            0.0000000000
     30400      2908  TIP3      H2             35.4551035179       24.1826596917       29.1557803479  TIP3      2716            0.0000000000
     30401      2909  TIP3      OH2            23.8935806610       25.1007930946       30.3362282815  TIP3      2717            0.0000000000
     30402      2909  TIP3      H1             24.5330841145       25.7653897849       30.6803645054  TIP3      2717            0.0000000000
     30403      2909  TIP3      H2             24.4290167386       24.6461787527       29.6409304936  TIP3      2717            0.0000000000
     30404      2910  TIP3      OH2            25.3028831249       32.8559181133       33.3661093377  TIP3      2718            0.0000000000
     30405      2910  TIP3      H1             25.2560041785       33.7757138411       33.0545509975  TIP3      2718            0.0000000000
     30406      2910  TIP3      H2             24.4299234394       32.7703623449       33.8286330914  TIP3      2718            0.0000000000
     30407      2911  TIP3      OH2            34.7941991226       34.0901370947       31.0540488741  TIP3      2719            0.0000000000
     30408      2911  TIP3      H1             33.8311851097       34.2703734552       31.1008665496  TIP3      2719            0.0000000000
     30409      2911  TIP3      H2             35.1953947537       34.9206316308       30.7271661102  TIP3      2719            0.0000000000
     30410      2912  TIP3      OH2            35.1066942816       22.5731858659       32.1376968174  TIP3      2720            0.0000000000
     30411      2912  TIP3      H1             34.3988397693       23.2448861275       32.1796597056  TIP3      2720            0.0000000000
     30412      2912  TIP3      H2             35.8496856388       23.0416348560       31.7364463107  TIP3      2720            0.0000000000
     30413      2913  TIP3      OH2            28.2763442918       20.5448330553       29.7946658754  TIP3      2721            0.0000000000
     30414      2913  TIP3      H1             28.1417758348       19.5796851519       29.7380480909  TIP3      2721            0.0000000000
     30415      2913  TIP3      H2             27.4026609831       20.8562473618       30.1083062726  TIP3      2721            0.0000000000
     30416      2914  TIP3      OH2            33.2867948792       35.6504474165       27.3403666345  TIP3      2722            0.0000000000
     30417      2914  TIP3      H1             33.8514330505       35.0216714286       26.8587450508  TIP3      2722            0.0000000000
     30418      2914  TIP3      H2             33.6646678919       36.4996335077       27.1110507526  TIP3      2722            0.0000000000
     30419      2915  TIP3      OH2            34.5163994400       33.8080819935       26.0289224011  TIP3      2723            0.0000000000
     30420      2915  TIP3      H1             34.1536569389       33.1106512412       25.4805918768  TIP3      2723            0.0000000000
     30421      2915  TIP3      H2             34.5156697662       33.3437079695       26.8960673568  TIP3      2723            0.0000000000
     30422      2916  TIP3      OH2            35.8217823018       32.5928900926       34.6572811634  TIP3      2724            0.0000000000
     30423      2916  TIP3      H1             36.0956649566       31.8904582776       34.0362131599  TIP3      2724            0.0000000000
     30424      2916  TIP3      H2             36.2641956388       33.3366701055       34.2049824483  TIP3      2724            0.0000000000
     30425      2917  TIP3      OH2            33.9477877093       29.5275838811       25.1891069065  TIP3      2725            0.0000000000
     30426      2917  TIP3      H1             33.3005649447       29.8364276771       25.8554801926  TIP3      2725            0.0000000000
     30427      2917  TIP3      H2             34.4672578502       28.9271302100       25.7660434343  TIP3      2725            0.0000000000
     30428      2918  TIP3      OH2            33.9588462259       27.7319811984       34.3233736762  TIP3      2726            0.0000000000
     30429      2918  TIP3      H1             33.9201399268       28.5309949293       34.8730531306  TIP3      2726            0.0000000000
     30430      2918  TIP3      H2             33.3175620244       28.0053485832       33.6397930278  TIP3      2726            0.0000000000
     30431      2919  TIP3      OH2            25.6346274882       30.2357861330       27.1390897362  TIP3      2727            0.0000000000
     30432      2919  TIP3      H1             25.3034537652       29.8355986058       26.2971888117  TIP3      2727            0.0000000000
     30433      2919  TIP3      H2             26.2201065341       29.5216147590       27.4750051799  TIP3      2727            0.0000000000
     30434      2920  TIP3      OH2            26.9266443129       33.6087935417       29.8231044270  TIP3      2728            0.0000000000
     30435      2920  TIP3      H1             26.9548210864       33.0662613030       29.0260076712  TIP3      2728            0.0000000000
     30436      2920  TIP3      H2             27.7208484855       33.2625274098       30.2856166747  TIP3      2728            0.0000000000
     30437      2921  TIP3      OH2            25.9538640624       28.9583527947       30.7898764275  TIP3      2729            0.0000000000
     30438      2921  TIP3      H1             26.5295781146       29.0751681976       30.0110460252  TIP3      2729            0.0000000000
     30439      2921  TIP3      H2             26.3200131857       29.6216993308       31.4100328387  TIP3      2729            0.0000000000
     30440      2922  TIP3      OH2            32.3186725290       34.5297694967       31.5084125284  TIP3      2730            0.0000000000
     30441      2922  TIP3      H1             32.0642266746       35.1553243129       32.1723161855  TIP3      2730            0.0000000000
     30442      2922  TIP3      H2             32.0985562131       33.6610535590       31.9288927878  TIP3      2730            0.0000000000
     30443      2923  TIP3      OH2            26.9056961672       33.3924766055       35.4982086576  TIP3      2731            0.0000000000
     30444      2923  TIP3      H1             26.4885498289       34.1426993171       35.9796500522  TIP3      2731            0.0000000000
     30445      2923  TIP3      H2             26.2386177220       33.1683199437       34.7990981656  TIP3      2731            0.0000000000
     30446      2924  TIP3      OH2            32.8290588397       28.7434538262       22.9516788285  TIP3      2732            0.0000000000
     30447      2924  TIP3      H1             33.4335303911       28.9229240498       23.7051136349  TIP3      2732            0.0000000000
     30448      2924  TIP3      H2             33.2509203915       29.2192167914       22.2274531006  TIP3      2732            0.0000000000
     30449      2925  TIP3      OH2            23.8445098730       29.5481147814       34.6677779949  TIP3      2733            0.0000000000
     30450      2925  TIP3      H1             23.8949993682       30.2115893972       35.3813900653  TIP3      2733            0.0000000000
     30451      2925  TIP3      H2             22.9065659365       29.6435543295       34.4412844822  TIP3      2733            0.0000000000
     30452      2926  TIP3      OH2            30.5475318059       35.4490941845       26.4039779734  TIP3      2734            0.0000000000
     30453      2926  TIP3      H1             31.0853834858       35.7835463434       27.1296702332  TIP3      2734            0.0000000000
     30454      2926  TIP3      H2             30.0695893553       36.2277634149       26.1080077533  TIP3      2734            0.0000000000
     30455      2927  TIP3      OH2            25.1433182872       35.3505246982       36.2339742801  TIP3      2735            0.0000000000
     30456      2927  TIP3      H1             25.0696429335       35.3091368921       35.2597038094  TIP3      2735            0.0000000000
     30457      2927  TIP3      H2             24.2023350445       35.2842646628       36.5027606092  TIP3      2735            0.0000000000
     30458      2928  TIP3      OH2            24.5869810898       29.2763436584       24.8339497631  TIP3      2736            0.0000000000
     30459      2928  TIP3      H1             24.3420828415       30.0151000921       24.2632504451  TIP3      2736            0.0000000000
     30460      2928  TIP3      H2             23.9938443665       28.5704446885       24.5382796097  TIP3      2736            0.0000000000
     30461      2929  TIP3      OH2            20.7009616416       31.6691847708       33.6306540880  TIP3      2737            0.0000000000
     30462      2929  TIP3      H1             20.2193650795       31.5682874141       32.7952640785  TIP3      2737            0.0000000000
     30463      2929  TIP3      H2             20.7487075618       30.7207008612       33.8844436512  TIP3      2737            0.0000000000
     30464      2930  TIP3      OH2            20.2804476542       34.4167033091       30.5568796656  TIP3      2738            0.0000000000
     30465      2930  TIP3      H1             21.1148396932       34.1242041010       30.8878848294  TIP3      2738            0.0000000000
     30466      2930  TIP3      H2             20.1810521853       35.2603541685       31.0385395251  TIP3      2738            0.0000000000
     30467      2931  TIP3      OH2            29.6317264197       34.6595135846       34.9841578664  TIP3      2739            0.0000000000
     30468      2931  TIP3      H1             29.7303336354       35.4683299647       35.4949063374  TIP3      2739            0.0000000000
     30469      2931  TIP3      H2             28.7810614802       34.2672219729       35.2565876653  TIP3      2739            0.0000000000
     30470      2932  TIP3      OH2            35.3809175590       26.7257946592       36.6239012678  TIP3      2740            0.0000000000
     30471      2932  TIP3      H1             35.3152236183       27.0910710821       35.7375430712  TIP3      2740            0.0000000000
     30472      2932  TIP3      H2             35.8770082430       25.8892486620       36.4426236011  TIP3      2740            0.0000000000
     30473      2933  TIP3      OH2            22.9673262209       32.9859400466       34.5808772735  TIP3      2741            0.0000000000
     30474      2933  TIP3      H1             23.1827814707       32.6127667099       35.4628762078  TIP3      2741            0.0000000000
     30475      2933  TIP3      H2             22.0999924007       32.5748137518       34.3899997451  TIP3      2741            0.0000000000
     30476      2934  TIP3      OH2            25.6436062997       21.4427277813       30.5673438275  TIP3      2742            0.0000000000
     30477      2934  TIP3      H1             24.7472239397       21.3252951983       30.1837132166  TIP3      2742            0.0000000000
     30478      2934  TIP3      H2             25.5165773882       22.2929782069       31.0180457077  TIP3      2742            0.0000000000
     30479      2935  TIP3      OH2            30.2938412287       21.1237547769       33.9102080637  TIP3      2743            0.0000000000
     30480      2935  TIP3      H1             30.6935780471       20.7083540867       34.6976664875  TIP3      2743            0.0000000000
     30481      2935  TIP3      H2             29.3222575555       20.9985955551       34.0544377834  TIP3      2743            0.0000000000
     30482      2936  TIP3      OH2            33.5525123184       24.9229206443       34.7661042892  TIP3      2744            0.0000000000
     30483      2936  TIP3      H1             33.0248826641       24.7635429079       35.5853037508  TIP3      2744            0.0000000000
     30484      2936  TIP3      H2             33.4287187757       25.8717384488       34.5979871339  TIP3      2744            0.0000000000
     30485      2937  TIP3      OH2            25.7487999896       26.4209956470       31.7737085851  TIP3      2745            0.0000000000
     30486      2937  TIP3      H1             25.0170766824       26.4108007415       32.4209784843  TIP3      2745            0.0000000000
     30487      2937  TIP3      H2             25.7244233072       27.3446801519       31.4443908126  TIP3      2745            0.0000000000
     30488      2938  TIP3      OH2            25.6891633642       26.5385109342       26.6421775985  TIP3      2746            0.0000000000
     30489      2938  TIP3      H1             24.7807100132       26.2684908041       26.4671940350  TIP3      2746            0.0000000000
     30490      2938  TIP3      H2             26.1146159184       26.2384106683       25.8287560164  TIP3      2746            0.0000000000
     30491      2939  TIP3      OH2            31.1939581759       27.0311707533       25.3535740597  TIP3      2747            0.0000000000
     30492      2939  TIP3      H1             30.8340543056       27.8877585040       25.1285277420  TIP3      2747            0.0000000000
     30493      2939  TIP3      H2             31.9515957804       26.9127849580       24.7689248369  TIP3      2747            0.0000000000
     30494      2940  TIP3      OH2            30.3055974522       27.2574896254       36.8748768981  TIP3      2748            0.0000000000
     30495      2940  TIP3      H1             29.7832181847       26.4781382498       37.1780969833  TIP3      2748            0.0000000000
     30496      2940  TIP3      H2             31.1455008658       27.1321780270       37.3512079813  TIP3      2748            0.0000000000
     30497      2941  TIP3      OH2            32.2340886651       26.5404269558       28.2776978526  TIP3      2749            0.0000000000
     30498      2941  TIP3      H1             32.0133911451       27.0995010377       27.5186560342  TIP3      2749            0.0000000000
     30499      2941  TIP3      H2             32.3575656916       25.6780401448       27.8275041359  TIP3      2749            0.0000000000
     30500      2942  TIP3      OH2            23.3826807099       26.6826523116       33.4913973246  TIP3      2750            0.0000000000
     30501      2942  TIP3      H1             23.4430010178       27.0912561980       34.3719600511  TIP3      2750            0.0000000000
     30502      2942  TIP3      H2             22.9284751381       25.8483836770       33.6822675915  TIP3      2750            0.0000000000
     30503      2943  TIP3      OH2            31.4585780301       28.1165072532       32.8363619985  TIP3      2751            0.0000000000
     30504      2943  TIP3      H1             31.8440090502       27.4279471471       32.2524569947  TIP3      2751            0.0000000000
     30505      2943  TIP3      H2             30.9968846247       27.5899983555       33.5128049328  TIP3      2751            0.0000000000
     30506      2944  TIP3      OH2            28.2284088035       24.1063642983       27.6683962772  TIP3      2752            0.0000000000
     30507      2944  TIP3      H1             27.3064652430       24.1003320765       27.9905081352  TIP3      2752            0.0000000000
     30508      2944  TIP3      H2             28.7573074334       23.9347835561       28.4649783535  TIP3      2752            0.0000000000
     30509      2945  TIP3      OH2            32.6165066130       23.3057595269       30.9363772519  TIP3      2753            0.0000000000
     30510      2945  TIP3      H1             31.9390215910       23.3785437823       31.6314156418  TIP3      2753            0.0000000000
     30511      2945  TIP3      H2             32.1269106964       23.1018435217       30.1251057467  TIP3      2753            0.0000000000
     30512      2946  TIP3      OH2            25.4209590570       26.8595067968       21.7556780956  TIP3      2754            0.0000000000
     30513      2946  TIP3      H1             24.8693096060       26.5252420827       21.0311196252  TIP3      2754            0.0000000000
     30514      2946  TIP3      H2             26.2116397699       27.0945443420       21.2601553370  TIP3      2754            0.0000000000
     30515      2947  TIP3      OH2            23.5676643220       31.4749190546       36.8034475949  TIP3      2755            0.0000000000
     30516      2947  TIP3      H1             24.2695182584       31.6883470864       37.4438573058  TIP3      2755            0.0000000000
     30517      2947  TIP3      H2             22.7762603162       31.5341490835       37.3821722501  TIP3      2755            0.0000000000
     30518      2948  TIP3      OH2            29.5663946433       26.8634609073       29.5626840583  TIP3      2756            0.0000000000
     30519      2948  TIP3      H1             30.1625520261       26.3142914722       29.0395828131  TIP3      2756            0.0000000000
     30520      2948  TIP3      H2             29.4054735424       26.3073477245       30.3367798666  TIP3      2756            0.0000000000
     30521      2949  TIP3      OH2            24.5707062443       23.0031630888       26.0067131441  TIP3      2757            0.0000000000
     30522      2949  TIP3      H1             24.2317453749       22.0923723516       25.9949951309  TIP3      2757            0.0000000000
     30523      2949  TIP3      H2             25.3585893430       22.9317441285       25.4575852285  TIP3      2757            0.0000000000
     30524      2950  TIP3      OH2            28.1937470408       25.1808997423       31.9770981197  TIP3      2758            0.0000000000
     30525      2950  TIP3      H1             27.3680446700       25.6974209365       32.0677384623  TIP3      2758            0.0000000000
     30526      2950  TIP3      H2             28.7459704034       25.5313842965       32.7029812583  TIP3      2758            0.0000000000
     30527      2951  TIP3      OH2            28.7703274853       31.4064708455       23.6693669467  TIP3      2759            0.0000000000
     30528      2951  TIP3      H1             27.9708195282       30.9606308400       23.3684922232  TIP3      2759            0.0000000000
     30529      2951  TIP3      H2             28.5730669919       31.5337874945       24.6201166899  TIP3      2759            0.0000000000
     30530      2952  TIP3      OH2            35.6663920079       30.6020492912       32.4733331621  TIP3      2760            0.0000000000
     30531      2952  TIP3      H1             36.3946579310       30.7857021602       31.8300500974  TIP3      2760            0.0000000000
     30532      2952  TIP3      H2             34.9051999938       30.6421927420       31.8686801290  TIP3      2760            0.0000000000
     30533      2953  TIP3      OH2            30.2637584896       31.6853478933       34.9018731881  TIP3      2761            0.0000000000
     30534      2953  TIP3      H1             29.9200242768       31.2549862249       35.6941540749  TIP3      2761            0.0000000000
     30535      2953  TIP3      H2             30.0515356003       32.6148073089       35.0231896836  TIP3      2761            0.0000000000
     30536      2954  TIP3      OH2            23.8897706950       30.8133442441       29.4891597895  TIP3      2762            0.0000000000
     30537      2954  TIP3      H1             24.5774447410       30.7181425248       28.7933814904  TIP3      2762            0.0000000000
     30538      2954  TIP3      H2             23.9510541001       29.9408780463       29.9308504739  TIP3      2762            0.0000000000
     30539      2955  TIP3      OH2            30.8979882843       32.9063655676       22.7086454495  TIP3      2763            0.0000000000
     30540      2955  TIP3      H1             30.5202456676       33.7431235040       23.0496197837  TIP3      2763            0.0000000000
     30541      2955  TIP3      H2             30.1536122051       32.3075306576       22.9083468184  TIP3      2763            0.0000000000
     30542      2956  TIP3      OH2            20.9032192860       29.2193063007       34.7151774364  TIP3      2764            0.0000000000
     30543      2956  TIP3      H1             21.0280539571       28.7687299485       35.5775146691  TIP3      2764            0.0000000000
     30544      2956  TIP3      H2             20.2476942197       28.6050857344       34.3334346687  TIP3      2764            0.0000000000
     30545      2957  TIP3      OH2            27.8902375239       28.7586925796       36.9171250756  TIP3      2765            0.0000000000
     30546      2957  TIP3      H1             27.5772502294       28.4632787012       36.0521126303  TIP3      2765            0.0000000000
     30547      2957  TIP3      H2             28.8194690011       28.4495358848       36.9141654597  TIP3      2765            0.0000000000
     30548      2958  TIP3      OH2            32.5717661992       34.1521075283       34.8062811493  TIP3      2766            0.0000000000
     30549      2958  TIP3      H1             31.6343176732       34.2224428402       34.6010924009  TIP3      2766            0.0000000000
     30550      2958  TIP3      H2             32.5355594244       34.3382664789       35.7734969734  TIP3      2766            0.0000000000
     30551      2959  TIP3      OH2            33.6908386555       29.9039530005       30.7576876362  TIP3      2767            0.0000000000
     30552      2959  TIP3      H1             32.7540988681       29.6822864106       30.6290417169  TIP3      2767            0.0000000000
     30553      2959  TIP3      H2             34.1666103429       29.1600743213       30.3464899143  TIP3      2767            0.0000000000
     30554      2960  TIP3      OH2            26.2596314179       34.2117570452       26.7754448691  TIP3      2768            0.0000000000
     30555      2960  TIP3      H1             26.7722100837       35.0251422722       26.6827610369  TIP3      2768            0.0000000000
     30556      2960  TIP3      H2             25.3726725780       34.4782554073       26.5407263598  TIP3      2768            0.0000000000
     30557      2961  TIP3      OH2            22.0650799925       29.1185848333       21.4068194873  TIP3      2769            0.0000000000
     30558      2961  TIP3      H1             22.6533841033       29.7341209699       21.8164473989  TIP3      2769            0.0000000000
     30559      2961  TIP3      H2             21.1644247805       29.3367767992       21.6984922782  TIP3      2769            0.0000000000
     30560      2962  TIP3      OH2            27.7087338619       31.8984380547       26.4005778928  TIP3      2770            0.0000000000
     30561      2962  TIP3      H1             27.4015669871       32.8263468535       26.4763831609  TIP3      2770            0.0000000000
     30562      2962  TIP3      H2             26.9493593720       31.4403776116       26.8203594446  TIP3      2770            0.0000000000
     30563      2963  TIP3      OH2            28.4226059942       35.7920970651       32.4906957878  TIP3      2771            0.0000000000
     30564      2963  TIP3      H1             28.5683762337       36.7456892272       32.4097760651  TIP3      2771            0.0000000000
     30565      2963  TIP3      H2             28.7503271753       35.6557708721       33.3922150166  TIP3      2771            0.0000000000
     30566      2964  TIP3      OH2            31.6981040730       32.1161850042       32.4215306934  TIP3      2772            0.0000000000
     30567      2964  TIP3      H1             31.3136282414       31.8868671576       33.2924778026  TIP3      2772            0.0000000000
     30568      2964  TIP3      H2             32.3016602526       31.3850312492       32.2354205251  TIP3      2772            0.0000000000
     30569      2965  TIP3      OH2            22.5319336438       23.9373818073       34.2855830066  TIP3      2773            0.0000000000
     30570      2965  TIP3      H1             21.6255593735       24.2893255398       34.2608098370  TIP3      2773            0.0000000000
     30571      2965  TIP3      H2             22.4171047706       23.0915963328       34.7480178384  TIP3      2773            0.0000000000
     30572      2966  TIP3      OH2            22.1605296313       35.6649136872       32.6679044751  TIP3      2774            0.0000000000
     30573      2966  TIP3      H1             22.4470235368       34.7620746778       32.7969367372  TIP3      2774            0.0000000000
     30574      2966  TIP3      H2             22.3334332626       36.0462299112       33.5521606414  TIP3      2774            0.0000000000
     30575      2967  TIP3      OH2            26.9053762177       33.7349216123       22.3882792751  TIP3      2775            0.0000000000
     30576      2967  TIP3      H1             27.1468459475       33.2550134400       23.1845208003  TIP3      2775            0.0000000000
     30577      2967  TIP3      H2             26.9998443051       34.6456667872       22.7020044489  TIP3      2775            0.0000000000
     30578      2968  TIP3      OH2            31.2264743784       23.7049857707       33.2389764120  TIP3      2776            0.0000000000
     30579      2968  TIP3      H1             31.9608182695       23.7807538413       33.8586825379  TIP3      2776            0.0000000000
     30580      2968  TIP3      H2             30.8658854783       22.8220946678       33.4466984905  TIP3      2776            0.0000000000
     30581      2969  TIP3      OH2            29.6933516916       35.4574131226       23.1579073892  TIP3      2777            0.0000000000
     30582      2969  TIP3      H1             28.8808346716       35.9654811284       23.2058377283  TIP3      2777            0.0000000000
     30583      2969  TIP3      H2             30.2159292505       35.9623572306       22.5053508785  TIP3      2777            0.0000000000
     30584      2970  TIP3      OH2            29.2294734355       25.0607028430       25.1383340518  TIP3      2778            0.0000000000
     30585      2970  TIP3      H1             30.0204045362       25.6151681451       25.2183323038  TIP3      2778            0.0000000000
     30586      2970  TIP3      H2             28.9612867800       24.9060995074       26.0639061610  TIP3      2778            0.0000000000
     30587      2971  TIP3      OH2            29.8107440684       26.0607781258       34.3383264112  TIP3      2779            0.0000000000
     30588      2971  TIP3      H1             29.8948664663       26.6226216241       35.1328280017  TIP3      2779            0.0000000000
     30589      2971  TIP3      H2             30.4617687103       25.3521057250       34.4328329405  TIP3      2779            0.0000000000
     30590      2972  TIP3      OH2            27.0228488403      -36.5382194738       23.1760798091  TIP3      2780            0.0000000000
     30591      2972  TIP3      H1             27.2526821489      -35.7547305005       22.6283615329  TIP3      2780            0.0000000000
     30592      2972  TIP3      H2             26.8731082209      -36.2073821428       24.0633182596  TIP3      2780            0.0000000000
     30593      2973  TIP3      OH2            35.8525161603       23.6234146886       34.9623316112  TIP3      2781            0.0000000000
     30594      2973  TIP3      H1             35.0438251813       24.2125490057       35.0460470619  TIP3      2781            0.0000000000
     30595      2973  TIP3      H2             36.2457670614       24.0260139176       34.1815706902  TIP3      2781            0.0000000000
     30596      2974  TIP3      OH2            34.5753124631       27.7138083035       29.2579700123  TIP3      2782            0.0000000000
     30597      2974  TIP3      H1             33.7653557437       27.2709188520       28.9384913543  TIP3      2782            0.0000000000
     30598      2974  TIP3      H2             35.0112623254       26.9972976337       29.7252367839  TIP3      2782            0.0000000000
     30599      2975  TIP3      OH2            23.1297819482       21.1042661772       29.6468923852  TIP3      2783            0.0000000000
     30600      2975  TIP3      H1             22.9287758918       21.1181051400       28.6843928590  TIP3      2783            0.0000000000
     30601      2975  TIP3      H2             22.7177064722       20.2582537606       29.9149020537  TIP3      2783            0.0000000000
     30602      2976  TIP3      OH2            22.0883816659       35.0435980770       25.7974532429  TIP3      2784            0.0000000000
     30603      2976  TIP3      H1             21.2261924107       35.4775935963       25.7930154821  TIP3      2784            0.0000000000
     30604      2976  TIP3      H2             22.6079000649       35.5111065578       25.1380319863  TIP3      2784            0.0000000000
     30605      2977  TIP3      OH2            26.2568464335       36.2996557632       38.9521338967  TIP3      2785            0.0000000000
     30606      2977  TIP3      H1             27.1037059981       35.8760120164       39.0941516531  TIP3      2785            0.0000000000
     30607      2977  TIP3      H2             26.1545836192       36.1460263209       37.9882985466  TIP3      2785            0.0000000000
     30608      2978  TIP3      OH2            30.1024059352       35.8743058415       20.4454437128  TIP3      2786            0.0000000000
     30609      2978  TIP3      H1             29.3385023587       35.3131631544       20.3946357404  TIP3      2786            0.0000000000
     30610      2978  TIP3      H2             30.7505547219       35.5024256912       19.8631417578  TIP3      2786            0.0000000000
     30611      2979  TIP3      OH2            32.5891133530       34.6503375073       37.3332534970  TIP3      2787            0.0000000000
     30612      2979  TIP3      H1             32.1139100509       33.9421415476       37.8018602833  TIP3      2787            0.0000000000
     30613      2979  TIP3      H2             33.2134533781       34.9599585065       37.9835713628  TIP3      2787            0.0000000000
     30614      2980  TIP3      OH2            21.2443061295       31.4398726417       38.0765887089  TIP3      2788            0.0000000000
     30615      2980  TIP3      H1             21.3824332336       30.5252131624       37.7705589365  TIP3      2788            0.0000000000
     30616      2980  TIP3      H2             20.4742454159       31.7040029906       37.5359323761  TIP3      2788            0.0000000000
     30617      2981  TIP3      OH2            27.9453677913       31.4146566317       37.4552479848  TIP3      2789            0.0000000000
     30618      2981  TIP3      H1             27.5832647517       31.7212270183       36.6045127274  TIP3      2789            0.0000000000
     30619      2981  TIP3      H2             28.0139504406       30.4346600798       37.3564371811  TIP3      2789            0.0000000000
     30620      2982  TIP3      OH2            33.6096962887       31.2607113030       34.8775958904  TIP3      2790            0.0000000000
     30621      2982  TIP3      H1             34.3932469892       31.8610869551       34.7905166782  TIP3      2790            0.0000000000
     30622      2982  TIP3      H2             32.9220797039       31.9373584647       34.9157869784  TIP3      2790            0.0000000000
     30623      2983  TIP3      OH2            22.1715178030       28.6909748692       37.4931880359  TIP3      2791            0.0000000000
     30624      2983  TIP3      H1             22.5161663371       27.7977117984       37.3825703703  TIP3      2791            0.0000000000
     30625      2983  TIP3      H2             21.8770301046       28.6787810759       38.4221709358  TIP3      2791            0.0000000000
     30626      2984  TIP3      OH2            26.0294408062       27.6176071759       34.8371242561  TIP3      2792            0.0000000000
     30627      2984  TIP3      H1             25.4280528214       28.3360661408       35.0983636490  TIP3      2792            0.0000000000
     30628      2984  TIP3      H2             26.4212116583       27.9817391654       34.0247948697  TIP3      2792            0.0000000000
     30629      2985  TIP3      OH2            31.1002925481       30.1883979415       38.2528965417  TIP3      2793            0.0000000000
     30630      2985  TIP3      H1             32.0448450932       30.1640146085       38.0557767088  TIP3      2793            0.0000000000
     30631      2985  TIP3      H2             30.9505926276       29.3883496137       38.7741796637  TIP3      2793            0.0000000000
     30632      2986  TIP3      OH2            26.4542030567       25.0015045597       35.8828213724  TIP3      2794            0.0000000000
     30633      2986  TIP3      H1             26.5508147612       24.2788077315       35.2381066666  TIP3      2794            0.0000000000
     30634      2986  TIP3      H2             26.3922196518       25.8066034003       35.3327836889  TIP3      2794            0.0000000000
     30635      2987  TIP3      OH2            26.8374246704       23.3712719951       33.4436155968  TIP3      2795            0.0000000000
     30636      2987  TIP3      H1             27.3478370656       23.8361397739       32.7386836464  TIP3      2795            0.0000000000
     30637      2987  TIP3      H2             25.9452507097       23.2897147326       33.0335691067  TIP3      2795            0.0000000000
     30638      2988  TIP3      OH2            28.3771672907       28.8508660435       33.6840893883  TIP3      2796            0.0000000000
     30639      2988  TIP3      H1             29.1333831168       28.6903336717       33.1096325656  TIP3      2796            0.0000000000
     30640      2988  TIP3      H2             28.0173285623       29.6912531271       33.3550553298  TIP3      2796            0.0000000000
     30641      2989  TIP3      OH2            32.8211406987       26.6309325034       38.6546778668  TIP3      2797            0.0000000000
     30642      2989  TIP3      H1             33.0422944839       25.6890130800       38.5800718668  TIP3      2797            0.0000000000
     30643      2989  TIP3      H2             33.6962582390       27.0404566767       38.6166201555  TIP3      2797            0.0000000000
     30644      2990  TIP3      OH2            34.1351867287       29.4450846109       36.8244976328  TIP3      2798            0.0000000000
     30645      2990  TIP3      H1             33.8373913081       30.1317965929       36.1870205180  TIP3      2798            0.0000000000
     30646      2990  TIP3      H2             35.0640825630       29.3555518083       36.6057560819  TIP3      2798            0.0000000000
     30647      2991  TIP3      OH2            24.9086263316       26.2291976262       37.8382928681  TIP3      2799            0.0000000000
     30648      2991  TIP3      H1             24.1252552036       25.6751514075       37.6318732433  TIP3      2799            0.0000000000
     30649      2991  TIP3      H2             25.5447684705       25.8813195313       37.1847471083  TIP3      2799            0.0000000000
     30650      2992  TIP3      OH2            27.6224694364       20.8064106710       33.8495828299  TIP3      2800            0.0000000000
     30651      2992  TIP3      H1             27.4570898562       21.7719043537       33.7460134120  TIP3      2800            0.0000000000
     30652      2992  TIP3      H2             26.8759601731       20.4462030291       33.3384262275  TIP3      2800            0.0000000000
     30653      2993  TIP3      OH2            28.9016362644       25.1386679349       37.4692830027  TIP3      2801            0.0000000000
     30654      2993  TIP3      H1             28.5822795590       24.9192867866       38.3641034316  TIP3      2801            0.0000000000
     30655      2993  TIP3      H2             28.1191700997       24.9478817176       36.9137229504  TIP3      2801            0.0000000000
     30656      2994  TIP3      OH2            31.5735645338       24.2902135933       36.5300581861  TIP3      2802            0.0000000000
     30657      2994  TIP3      H1             30.6166228470       24.3252510806       36.6766688342  TIP3      2802            0.0000000000
     30658      2994  TIP3      H2             31.8985155376       23.6617593477       37.2042210698  TIP3      2802            0.0000000000
     30659      2995  TIP3      OH2            33.2631153203       22.8805625138       38.4642575682  TIP3      2803            0.0000000000
     30660      2995  TIP3      H1             33.1261779146       21.9126173592       38.4974882548  TIP3      2803            0.0000000000
     30661      2995  TIP3      H2             32.9432826689       23.2027861826       39.3441765675  TIP3      2803            0.0000000000
     30662      2996  TIP3      OH2            22.9979152553       24.1728340583       37.5617074924  TIP3      2804            0.0000000000
     30663      2996  TIP3      H1             23.2341203321       23.4351827310       36.9727575873  TIP3      2804            0.0000000000
     30664      2996  TIP3      H2             22.9072850101       23.7271046564       38.4309938161  TIP3      2804            0.0000000000
     30665      2997  TIP3      OH2            27.8413546281       20.1883982164       36.5365013668  TIP3      2805            0.0000000000
     30666      2997  TIP3      H1             28.5299315081       19.4924849720       36.5078850521  TIP3      2805            0.0000000000
     30667      2997  TIP3      H2             27.7320740123       20.3541911690       35.5811107787  TIP3      2805            0.0000000000
     30668      2998  TIP3      OH2            28.1898200052       21.8036686436       38.6291913766  TIP3      2806            0.0000000000
     30669      2998  TIP3      H1             28.0315719387       21.3035137426       37.7918901353  TIP3      2806            0.0000000000
     30670      2998  TIP3      H2             27.6106694940       22.5819132450       38.5249177661  TIP3      2806            0.0000000000
     30671      2999  TIP3      OH2            36.2639177275       34.8716836424       33.3340486590  TIP3      2807            0.0000000000
     30672      2999  TIP3      H1             35.5871640121       35.3053678881       33.8512735172  TIP3      2807            0.0000000000
     30673      2999  TIP3      H2             35.7748112781       34.4999027703       32.5663477547  TIP3      2807            0.0000000000
     30674      3000  TIP3      OH2            35.3558364602       27.8773870072       26.6589007588  TIP3      2808            0.0000000000
     30675      3000  TIP3      H1             35.6741566703       26.9719024404       26.6882784309  TIP3      2808            0.0000000000
     30676      3000  TIP3      H2             35.4955682217       28.1517809671       27.5892058410  TIP3      2808            0.0000000000
     30677      3001  TIP3      OH2            20.8931450301       29.9539854995       30.5954398294  TIP3      2809            0.0000000000
     30678      3001  TIP3      H1             21.0875239828       29.7671295800       29.6677745210  TIP3      2809            0.0000000000
     30679      3001  TIP3      H2             21.7602006771       29.7081893500       30.9947813985  TIP3      2809            0.0000000000
     30680      3002  TIP3      OH2           -37.0442429009       25.1182676044       30.4458861154  TIP3      2810            0.0000000000
     30681      3002  TIP3      H1            -36.1572460196       25.4803540907       30.3328998043  TIP3      2810            0.0000000000
     30682      3002  TIP3      H2            -37.2494840151       25.7560739937       31.1526639985  TIP3      2810            0.0000000000
     30683      3003  TIP3      OH2            36.2645766686       26.6895153511       33.4887127027  TIP3      2811            0.0000000000
     30684      3003  TIP3      H1             35.3373007861       26.9783883721       33.5968313849  TIP3      2811            0.0000000000
     30685      3003  TIP3      H2             36.6341988854       27.4055496025       32.9355416171  TIP3      2811            0.0000000000
     30686      3004  TIP3      OH2            20.5287274382       25.1315151077       36.7640797156  TIP3      2812            0.0000000000
     30687      3004  TIP3      H1             21.4602165162       24.9659517031       36.9913791257  TIP3      2812            0.0000000000
     30688      3004  TIP3      H2             20.0444596811       24.3510429977       37.0951983313  TIP3      2812            0.0000000000
     30689      3005  TIP3      OH2            35.3181236609       22.3760041315       25.7037056976  TIP3      2813            0.0000000000
     30690      3005  TIP3      H1             36.2461907611       22.2107171439       25.9573268279  TIP3      2813            0.0000000000
     30691      3005  TIP3      H2             35.3737052713       21.9431924769       24.8324445986  TIP3      2813            0.0000000000
     30692      3006  TIP3      OH2            21.7093005825       23.4898000248       29.6485267916  TIP3      2814            0.0000000000
     30693      3006  TIP3      H1             22.1717015358       22.6667904928       29.8965563312  TIP3      2814            0.0000000000
     30694      3006  TIP3      H2             22.2493901758       24.1836745350       30.0398512116  TIP3      2814            0.0000000000
     30695      3007  TIP3      OH2            19.9702161696       26.4967424681       30.6404910728  TIP3      2815            0.0000000000
     30696      3007  TIP3      H1             20.5585126091       26.2382884603       29.9009627506  TIP3      2815            0.0000000000
     30697      3007  TIP3      H2             20.4388677117       27.2863599532       30.9556474247  TIP3      2815            0.0000000000
     30698      3008  TIP3      OH2            20.2990066386       21.4131634595       33.0475133197  TIP3      2816            0.0000000000
     30699      3008  TIP3      H1             19.6264698636       21.2134117592       33.7212153441  TIP3      2816            0.0000000000
     30700      3008  TIP3      H2             19.8435950126       22.0817810832       32.4973006097  TIP3      2816            0.0000000000
     30701      3009  TIP3      OH2            22.5309149887       34.6745488591       37.2103820758  TIP3      2817            0.0000000000
     30702      3009  TIP3      H1             21.6698151871       34.7764136997       36.7659438646  TIP3      2817            0.0000000000
     30703      3009  TIP3      H2             22.2573653956       34.5107945742       38.1236416084  TIP3      2817            0.0000000000
     30704      3010  TIP3      OH2            25.4361521508       35.5795044924       33.4931315471  TIP3      2818            0.0000000000
     30705      3010  TIP3      H1             25.0452758034       36.4126410074       33.1994738550  TIP3      2818            0.0000000000
     30706      3010  TIP3      H2             26.3397977095       35.6022319919       33.1372301493  TIP3      2818            0.0000000000
     30707      3011  TIP3      OH2            24.5747750383       35.9674108213       28.8876420606  TIP3      2819            0.0000000000
     30708      3011  TIP3      H1             24.3583701264       35.1480138323       29.3232245064  TIP3      2819            0.0000000000
     30709      3011  TIP3      H2             25.2342154975       36.3387627959       29.5154831016  TIP3      2819            0.0000000000
     30710      3012  TIP3      OH2            30.4289418758       22.3517909715       29.0429742292  TIP3      2820            0.0000000000
     30711      3012  TIP3      H1             29.7751829440       21.7058102308       29.3527747168  TIP3      2820            0.0000000000
     30712      3012  TIP3      H2             31.0275991413       21.8185611907       28.5123509345  TIP3      2820            0.0000000000
     30713      3013  TIP3      OH2            35.5967088159       20.3828618075       29.1714980485  TIP3      2821            0.0000000000
     30714      3013  TIP3      H1             36.1807771258       20.9861978156       28.7019223361  TIP3      2821            0.0000000000
     30715      3013  TIP3      H2             34.7145673452       20.7563188868       28.9510835013  TIP3      2821            0.0000000000
     30716      3014  TIP3      OH2            22.8234278872       20.9821645135       26.9237471644  TIP3      2822            0.0000000000
     30717      3014  TIP3      H1             22.0243014994       20.7744172939       26.4034088983  TIP3      2822            0.0000000000
     30718      3014  TIP3      H2             23.2814378915       20.1243111068       26.8865548339  TIP3      2822            0.0000000000
     30719      3015  TIP3      OH2            21.7785762310       20.9114941705       22.8979873199  TIP3      2823            0.0000000000
     30720      3015  TIP3      H1             22.0093994526       21.4598733728       22.1246226532  TIP3      2823            0.0000000000
     30721      3015  TIP3      H2             20.9804378892       21.3572223126       23.1848259287  TIP3      2823            0.0000000000
     30722      3016  TIP3      OH2            27.3436880559       20.8823707409       26.6844351480  TIP3      2824            0.0000000000
     30723      3016  TIP3      H1             28.2099759926       21.3043877219       26.6987499840  TIP3      2824            0.0000000000
     30724      3016  TIP3      H2             27.2438004213       20.7036152217       27.6265164806  TIP3      2824            0.0000000000
     30725      3017  TIP3      OH2            32.9886239184       20.8781418273       28.3414402738  TIP3      2825            0.0000000000
     30726      3017  TIP3      H1             32.9765291266       21.0350399379       27.3900586331  TIP3      2825            0.0000000000
     30727      3017  TIP3      H2             32.6101067730       19.9748994733       28.4685670591  TIP3      2825            0.0000000000
     30728      3018  TIP3      OH2            34.2200354386       20.8972973015       23.9000945225  TIP3      2826            0.0000000000
     30729      3018  TIP3      H1             33.5034255489       21.5215178741       23.8467848246  TIP3      2826            0.0000000000
     30730      3018  TIP3      H2             33.7777268268       20.0707046058       24.1702635479  TIP3      2826            0.0000000000
     30731      3019  TIP3      OH2            22.7037924136       21.5117098717       36.3882725661  TIP3      2827            0.0000000000
     30732      3019  TIP3      H1             22.3258406188       20.7120315192       36.8045372373  TIP3      2827            0.0000000000
     30733      3019  TIP3      H2             23.6210700890       21.4705171408       36.7481937524  TIP3      2827            0.0000000000
     30734      3020  TIP3      OH2            24.7118298522       20.8985177928       38.0235096062  TIP3      2828            0.0000000000
     30735      3020  TIP3      H1             25.5942833942       20.5467501073       37.7846519020  TIP3      2828            0.0000000000
     30736      3020  TIP3      H2             24.3253021582       20.0993891858       38.4336522528  TIP3      2828            0.0000000000
     30737      3021  TIP3      OH2            33.1365883919       20.2031006897       38.1603569042  TIP3      2829            0.0000000000
     30738      3021  TIP3      H1             33.1968434240       19.7167026908       39.0091205708  TIP3      2829            0.0000000000
     30739      3021  TIP3      H2             34.0520415637       20.1602822487       37.8188899181  TIP3      2829            0.0000000000
     30740      3022  TIP3      OH2            36.1801825105      -36.8194151109       36.9989620506  TIP3      2830            0.0000000000
     30741      3022  TIP3      H1             35.5836827189      -36.9989457170       36.2550874556  TIP3      2830            0.0000000000
     30742      3022  TIP3      H2             36.2737514555      -35.8505647809       36.9424208217  TIP3      2830            0.0000000000
     30743      3023  TIP3      OH2           -25.9600578249      -28.6963627679       40.1324648246  TIP3      2831            0.0000000000
     30744      3023  TIP3      H1            -25.2452772331      -28.6645898082       40.8074775098  TIP3      2831            0.0000000000
     30745      3023  TIP3      H2            -25.6002492748      -29.3903020813       39.5677585599  TIP3      2831            0.0000000000
     30746      3024  TIP3      OH2           -23.7209130294      -27.9666813256       41.6400058878  TIP3      2832            0.0000000000
     30747      3024  TIP3      H1            -23.2980688936      -27.7072872440       42.4928648260  TIP3      2832            0.0000000000
     30748      3024  TIP3      H2            -23.3368506019      -27.3538852074       40.9852573483  TIP3      2832            0.0000000000
     30749      3025  TIP3      OH2           -19.9967971787      -36.0076994505       41.6013337963  TIP3      2833            0.0000000000
     30750      3025  TIP3      H1            -20.9094619583      -35.8387966701       41.8653085228  TIP3      2833            0.0000000000
     30751      3025  TIP3      H2            -19.7223733777      -35.1653452134       41.2252909953  TIP3      2833            0.0000000000
     30752      3026  TIP3      OH2           -18.8270769597      -21.7161240673       39.9071481536  TIP3      2834            0.0000000000
     30753      3026  TIP3      H1            -18.6962772499      -20.7848144060       40.1581256568  TIP3      2834            0.0000000000
     30754      3026  TIP3      H2            -17.9027409341      -22.0109297619       39.9937714500  TIP3      2834            0.0000000000
     30755      3027  TIP3      OH2           -23.4327311638      -18.9762210270       40.6507683042  TIP3      2835            0.0000000000
     30756      3027  TIP3      H1            -22.9459221336      -19.7090874032       40.2138943238  TIP3      2835            0.0000000000
     30757      3027  TIP3      H2            -23.3339734435      -19.2390754657       41.5864822225  TIP3      2835            0.0000000000
     30758      3028  TIP3      OH2           -22.1921892499      -26.8149483327       39.5360346598  TIP3      2836            0.0000000000
     30759      3028  TIP3      H1            -22.2506783945      -26.9927248630       38.5611381216  TIP3      2836            0.0000000000
     30760      3028  TIP3      H2            -21.3538849659      -26.3354550404       39.5601708908  TIP3      2836            0.0000000000
     30761      3029  TIP3      OH2           -26.6393959018      -32.9053178313       40.0647417974  TIP3      2837            0.0000000000
     30762      3029  TIP3      H1            -26.9240606667      -32.8908499772       40.9838831623  TIP3      2837            0.0000000000
     30763      3029  TIP3      H2            -26.9269408954      -33.7875146423       39.7745760616  TIP3      2837            0.0000000000
     30764      3030  TIP3      OH2           -29.8015140275      -32.4451658831       39.2079348913  TIP3      2838            0.0000000000
     30765      3030  TIP3      H1            -30.2664669363      -32.9238660413       39.9216538619  TIP3      2838            0.0000000000
     30766      3030  TIP3      H2            -30.5093136511      -32.1156293943       38.6384710323  TIP3      2838            0.0000000000
     30767      3031  TIP3      OH2           -35.0950920399      -31.9453768215       41.6324215409  TIP3      2839            0.0000000000
     30768      3031  TIP3      H1            -34.7146260866      -31.3391398684       40.9826860909  TIP3      2839            0.0000000000
     30769      3031  TIP3      H2            -35.9519076480      -31.5741068240       41.9151665934  TIP3      2839            0.0000000000
     30770      3032  TIP3      OH2           -31.2182293786      -29.6946476262       40.5952096365  TIP3      2840            0.0000000000
     30771      3032  TIP3      H1            -31.6280921890      -30.1204277428       39.8169711245  TIP3      2840            0.0000000000
     30772      3032  TIP3      H2            -30.3430597723      -29.5021120286       40.1815215937  TIP3      2840            0.0000000000
     30773      3033  TIP3      OH2           -23.9390279384      -32.3100744711       40.6757780380  TIP3      2841            0.0000000000
     30774      3033  TIP3      H1            -24.8969294464      -32.1862921650       40.5910180924  TIP3      2841            0.0000000000
     30775      3033  TIP3      H2            -23.6252712546      -31.4944299389       41.1109914151  TIP3      2841            0.0000000000
     30776      3034  TIP3      OH2           -23.2100814022      -30.4303042214       42.3481747990  TIP3      2842            0.0000000000
     30777      3034  TIP3      H1            -22.3102495683      -30.5645801514       42.6768950125  TIP3      2842            0.0000000000
     30778      3034  TIP3      H2            -23.1508704673      -29.6176023120       41.8140723135  TIP3      2842            0.0000000000
     30779      3035  TIP3      OH2           -25.6938278639      -23.7018970794       41.5118175178  TIP3      2843            0.0000000000
     30780      3035  TIP3      H1            -26.0294035512      -22.8833819645       41.9019259973  TIP3      2843            0.0000000000
     30781      3035  TIP3      H2            -26.3802468287      -24.3300537075       41.7793468193  TIP3      2843            0.0000000000
     30782      3036  TIP3      OH2           -18.1798361960      -30.2337106954       41.9675451565  TIP3      2844            0.0000000000
     30783      3036  TIP3      H1            -18.8217257403      -30.5954057962       41.3196000270  TIP3      2844            0.0000000000
     30784      3036  TIP3      H2            -18.1740660952      -29.2875472160       41.7412794093  TIP3      2844            0.0000000000
     30785      3037  TIP3      OH2           -34.6056115466      -27.4701882811       40.3214654885  TIP3      2845            0.0000000000
     30786      3037  TIP3      H1            -34.0009825655      -26.7456256614       40.6562036251  TIP3      2845            0.0000000000
     30787      3037  TIP3      H2            -35.4686100982      -27.0806638535       40.5208527112  TIP3      2845            0.0000000000
     30788      3038  TIP3      OH2           -22.5943241394      -23.4346003814       40.3302553391  TIP3      2846            0.0000000000
     30789      3038  TIP3      H1            -22.2783258503      -23.7795743547       41.1709125404  TIP3      2846            0.0000000000
     30790      3038  TIP3      H2            -23.5472906124      -23.5734757695       40.4632785439  TIP3      2846            0.0000000000
     30791      3039  TIP3      OH2           -18.1727595029      -19.0261594918       40.5373981220  TIP3      2847            0.0000000000
     30792      3039  TIP3      H1            -17.4013956003      -18.4309383342       40.4982881590  TIP3      2847            0.0000000000
     30793      3039  TIP3      H2            -18.8413336590      -18.4059656783       40.8881301085  TIP3      2847            0.0000000000
     30794      3040  TIP3      OH2           -28.4187191827      -22.3432348876       38.7997415155  TIP3      2848            0.0000000000
     30795      3040  TIP3      H1            -28.3877285958      -23.1465243546       38.2615171415  TIP3      2848            0.0000000000
     30796      3040  TIP3      H2            -28.8571956429      -22.7168220562       39.6114368551  TIP3      2848            0.0000000000
     30797      3041  TIP3      OH2           -29.6280608721      -22.8304073461       41.2375380354  TIP3      2849            0.0000000000
     30798      3041  TIP3      H1            -29.4568293959      -23.2877169369       42.0725477917  TIP3      2849            0.0000000000
     30799      3041  TIP3      H2            -29.5721497573      -21.9101299572       41.5722209207  TIP3      2849            0.0000000000
     30800      3042  TIP3      OH2           -33.2856365899      -25.5829196894       41.6653701496  TIP3      2850            0.0000000000
     30801      3042  TIP3      H1            -33.8329153789      -25.1962736415       42.3528972228  TIP3      2850            0.0000000000
     30802      3042  TIP3      H2            -32.6325200509      -24.8517453682       41.5280221314  TIP3      2850            0.0000000000
     30803      3043  TIP3      OH2           -27.2749695237      -21.3691395719       41.2692999514  TIP3      2851            0.0000000000
     30804      3043  TIP3      H1            -27.8408266641      -20.7952298729       41.8389453689  TIP3      2851            0.0000000000
     30805      3043  TIP3      H2            -26.5072291004      -20.7744172497       41.2602819197  TIP3      2851            0.0000000000
     30806      3044  TIP3      OH2           -29.4811808730      -20.1010992157       42.0632460184  TIP3      2852            0.0000000000
     30807      3044  TIP3      H1            -29.4102578154      -19.3209915139       41.4540561531  TIP3      2852            0.0000000000
     30808      3044  TIP3      H2            -29.7338174549      -19.6886316529       42.8952674895  TIP3      2852            0.0000000000
     30809      3045  TIP3      OH2           -30.9554686119      -33.5174654205       41.3950461964  TIP3      2853            0.0000000000
     30810      3045  TIP3      H1            -31.0955780032      -32.6594029037       41.7999860362  TIP3      2853            0.0000000000
     30811      3045  TIP3      H2            -30.0501534112      -33.6475300458       41.7270943487  TIP3      2853            0.0000000000
     30812      3046  TIP3      OH2           -32.6148094202      -22.8962157158       40.6311878737  TIP3      2854            0.0000000000
     30813      3046  TIP3      H1            -31.9638953550      -22.2652485313       40.9667942583  TIP3      2854            0.0000000000
     30814      3046  TIP3      H2            -32.0508836798      -23.3649186781       39.9855140248  TIP3      2854            0.0000000000
     30815      3047  TIP3      OH2           -34.3087292621      -30.2297388196       39.7927073596  TIP3      2855            0.0000000000
     30816      3047  TIP3      H1            -34.3663893540      -29.2734190188       39.7502697307  TIP3      2855            0.0000000000
     30817      3047  TIP3      H2            -35.1593029720      -30.5335801345       39.4311244540  TIP3      2855            0.0000000000
     30818      3048  TIP3      OH2           -26.4766127865      -20.4536553392       38.9138965914  TIP3      2856            0.0000000000
     30819      3048  TIP3      H1            -27.1728984085      -21.0719727461       39.3016573257  TIP3      2856            0.0000000000
     30820      3048  TIP3      H2            -25.7372078158      -21.0676268437       38.9717293549  TIP3      2856            0.0000000000
     30821      3049  TIP3      OH2           -21.9332439947      -20.7137515084       39.0707822125  TIP3      2857            0.0000000000
     30822      3049  TIP3      H1            -21.6180252772      -21.4426866204       39.6395526450  TIP3      2857            0.0000000000
     30823      3049  TIP3      H2            -21.1160968624      -20.4887434444       38.5907221615  TIP3      2857            0.0000000000
     30824      3050  TIP3      OH2           -31.0223443368      -24.8210705207       38.9876499962  TIP3      2858            0.0000000000
     30825      3050  TIP3      H1            -30.8203874524      -25.5588888758       39.5727133642  TIP3      2858            0.0000000000
     30826      3050  TIP3      H2            -30.2715549429      -24.8848904896       38.3658824743  TIP3      2858            0.0000000000
     30827      3051  TIP3      OH2           -25.5760268787      -23.6407692977       38.7498566535  TIP3      2859            0.0000000000
     30828      3051  TIP3      H1            -25.8173306048      -23.6094958838       39.6984532829  TIP3      2859            0.0000000000
     30829      3051  TIP3      H2            -25.7622013458      -24.6111093498       38.5937922356  TIP3      2859            0.0000000000
     30830      3052  TIP3      OH2           -29.8591239242      -26.7957166605       41.2953769170  TIP3      2860            0.0000000000
     30831      3052  TIP3      H1            -30.2236735071      -27.3148368140       42.0254874946  TIP3      2860            0.0000000000
     30832      3052  TIP3      H2            -29.4798989479      -27.4668363690       40.6844870290  TIP3      2860            0.0000000000
     30833      3053  TIP3      OH2           -28.7552118394      -28.5821391155       39.5818304134  TIP3      2861            0.0000000000
     30834      3053  TIP3      H1            -28.8735630083      -28.6803926660       38.6078571876  TIP3      2861            0.0000000000
     30835      3053  TIP3      H2            -27.7745609819      -28.4841935195       39.6616636411  TIP3      2861            0.0000000000
     30836      3054  TIP3      OH2           -19.3946360280      -26.1856092353       39.0784233932  TIP3      2862            0.0000000000
     30837      3054  TIP3      H1            -19.5666209824      -26.5955182144       38.2084357774  TIP3      2862            0.0000000000
     30838      3054  TIP3      H2            -19.3160331104      -25.2354809284       38.8171873493  TIP3      2862            0.0000000000
     30839      3055  TIP3      OH2           -28.8528326278      -17.8710008503       40.6590655099  TIP3      2863            0.0000000000
     30840      3055  TIP3      H1            -27.8934579742      -17.7391576781       40.7592240760  TIP3      2863            0.0000000000
     30841      3055  TIP3      H2            -29.0640943071      -17.2234353629       39.9764806170  TIP3      2863            0.0000000000
     30842      3056  TIP3      OH2           -35.3102229678      -23.2556334400       40.1583887576  TIP3      2864            0.0000000000
     30843      3056  TIP3      H1            -34.3563692631      -23.1323062508       40.3532937541  TIP3      2864            0.0000000000
     30844      3056  TIP3      H2            -35.2606209071      -23.9073886128       39.4423687266  TIP3      2864            0.0000000000
     30845      3057  TIP3      OH2           -18.1610473378      -27.4324662385       41.1372548494  TIP3      2865            0.0000000000
     30846      3057  TIP3      H1            -18.6954667109      -27.0280676499       40.4161558484  TIP3      2865            0.0000000000
     30847      3057  TIP3      H2            -18.1876600461      -26.7823709304       41.8725283137  TIP3      2865            0.0000000000
     30848      3058  TIP3      OH2           -19.8285726980      -30.1400747884       39.7814082034  TIP3      2866            0.0000000000
     30849      3058  TIP3      H1            -19.7584572904      -29.5090969346       39.0587116786  TIP3      2866            0.0000000000
     30850      3058  TIP3      H2            -20.0142283447      -30.9772071958       39.3066958163  TIP3      2866            0.0000000000
     30851      3059  TIP3      OH2           -20.5974057430      -32.7161225126       38.9204117922  TIP3      2867            0.0000000000
     30852      3059  TIP3      H1            -19.9949042230      -33.1362159607       39.5584419737  TIP3      2867            0.0000000000
     30853      3059  TIP3      H2            -21.4479895405      -33.1460738767       39.1203537157  TIP3      2867            0.0000000000
     30854      3060  TIP3      OH2           -18.5339671598      -33.8597441125       40.4484065730  TIP3      2868            0.0000000000
     30855      3060  TIP3      H1            -18.1052597370      -34.5960259421       39.9591946783  TIP3      2868            0.0000000000
     30856      3060  TIP3      H2            -17.8051405730      -33.2102701417       40.5451697869  TIP3      2868            0.0000000000
     30857      3061  TIP3      OH2           -34.8461590635      -35.7677739942       41.4909887838  TIP3      2869            0.0000000000
     30858      3061  TIP3      H1            -34.3600779885      -35.1045048899       40.9670008410  TIP3      2869            0.0000000000
     30859      3061  TIP3      H2            -35.3121073112      -35.1774343725       42.0976614410  TIP3      2869            0.0000000000
     30860      3062  TIP3      OH2           -33.1619286453      -33.9133073267       39.9973475112  TIP3      2870            0.0000000000
     30861      3062  TIP3      H1            -32.6155982060      -34.5209596968       39.4499800363  TIP3      2870            0.0000000000
     30862      3062  TIP3      H2            -32.4958242213      -33.6150003584       40.6519209777  TIP3      2870            0.0000000000
     30863      3063  TIP3      OH2           -26.2142445616      -18.5749212839       40.8423021406  TIP3      2871            0.0000000000
     30864      3063  TIP3      H1            -25.2819346214      -18.3498939889       40.7045394551  TIP3      2871            0.0000000000
     30865      3063  TIP3      H2            -26.4113027434      -19.1339855123       40.0701585741  TIP3      2871            0.0000000000
     30866      3064  TIP3      OH2           -33.2734576417      -18.9223044925       39.4609319120  TIP3      2872            0.0000000000
     30867      3064  TIP3      H1            -33.5468073378      -18.6814187961       40.3632174003  TIP3      2872            0.0000000000
     30868      3064  TIP3      H2            -32.4760242585      -19.4705241029       39.6152487161  TIP3      2872            0.0000000000
     30869      3065  TIP3      OH2            -7.0794873294      -28.6612721951       40.0955724200  TIP3      2873            0.0000000000
     30870      3065  TIP3      H1             -6.4170222204      -28.6857219021       40.8208711657  TIP3      2873            0.0000000000
     30871      3065  TIP3      H2             -6.7577553404      -29.4074018106       39.5745890302  TIP3      2873            0.0000000000
     30872      3066  TIP3      OH2            -4.8628169395      -27.9596896859       41.6357783407  TIP3      2874            0.0000000000
     30873      3066  TIP3      H1             -4.4513948860      -27.7115532754       42.4998577399  TIP3      2874            0.0000000000
     30874      3066  TIP3      H2             -4.4685217125      -27.3608199152       40.9903483872  TIP3      2874            0.0000000000
     30875      3067  TIP3      OH2            -0.9744633274      -36.0028806047       41.6368820962  TIP3      2875            0.0000000000
     30876      3067  TIP3      H1             -1.9369426023      -36.1224708444       41.6302504232  TIP3      2875            0.0000000000
     30877      3067  TIP3      H2             -0.8269581941      -35.2354135135       41.0513893024  TIP3      2875            0.0000000000
     30878      3068  TIP3      OH2             0.0205186504      -21.7259206521       39.9092421197  TIP3      2876            0.0000000000
     30879      3068  TIP3      H1              0.1649723594      -20.7955804810       40.1648940155  TIP3      2876            0.0000000000
     30880      3068  TIP3      H2              0.9460207380      -22.0180035299       39.9921644947  TIP3      2876            0.0000000000
     30881      3069  TIP3      OH2            -4.5396848250      -18.9477918625       40.6760352881  TIP3      2877            0.0000000000
     30882      3069  TIP3      H1             -4.1194464962      -19.6864934185       40.1888201360  TIP3      2877            0.0000000000
     30883      3069  TIP3      H2             -4.4868562261      -19.2624339404       41.5895477662  TIP3      2877            0.0000000000
     30884      3070  TIP3      OH2            -3.3874554006      -26.6980957310       39.4933218454  TIP3      2878            0.0000000000
     30885      3070  TIP3      H1             -3.3592631240      -27.0560413101       38.5578244935  TIP3      2878            0.0000000000
     30886      3070  TIP3      H2             -2.4595456481      -26.3955726579       39.5715728527  TIP3      2878            0.0000000000
     30887      3071  TIP3      OH2            -7.7824835972      -32.9036010622       40.0638331628  TIP3      2879            0.0000000000
     30888      3071  TIP3      H1             -8.0663336476      -32.8918093799       40.9835868209  TIP3      2879            0.0000000000
     30889      3071  TIP3      H2             -8.0729463774      -33.7861970771       39.7754900331  TIP3      2879            0.0000000000
     30890      3072  TIP3      OH2           -10.9518794887      -32.4743495518       39.1961094167  TIP3      2880            0.0000000000
     30891      3072  TIP3      H1            -11.4321246180      -32.8901066459       39.9423539987  TIP3      2880            0.0000000000
     30892      3072  TIP3      H2            -11.6655513713      -32.0773080866       38.6787773981  TIP3      2880            0.0000000000
     30893      3073  TIP3      OH2           -16.5322809989      -32.1286860966       41.5422900520  TIP3      2881            0.0000000000
     30894      3073  TIP3      H1            -15.8588474190      -31.5029490287       41.1702220211  TIP3      2881            0.0000000000
     30895      3073  TIP3      H2            -17.0922722058      -31.4678175790       41.9870589842  TIP3      2881            0.0000000000
     30896      3074  TIP3      OH2           -12.1700931488      -29.5096029105       40.4552393718  TIP3      2882            0.0000000000
     30897      3074  TIP3      H1            -12.7691313266      -30.0739130623       39.9242361258  TIP3      2882            0.0000000000
     30898      3074  TIP3      H2            -11.3291602464      -29.5037823442       39.9924360618  TIP3      2882            0.0000000000
     30899      3075  TIP3      OH2            -5.0686967077      -32.3285603452       40.6947583103  TIP3      2883            0.0000000000
     30900      3075  TIP3      H1             -6.0264395379      -32.1952716238       40.5774065925  TIP3      2883            0.0000000000
     30901      3075  TIP3      H2             -4.7798321546      -31.4820594445       41.0928511239  TIP3      2883            0.0000000000
     30902      3076  TIP3      OH2            -4.3534077029      -30.4406695823       42.3388631915  TIP3      2884            0.0000000000
     30903      3076  TIP3      H1             -3.4642699524      -30.5264051874       42.6901793675  TIP3      2884            0.0000000000
     30904      3076  TIP3      H2             -4.3122226132      -29.6179997899       41.8209860978  TIP3      2884            0.0000000000
     30905      3077  TIP3      OH2            -6.8144170291      -23.7164643786       41.5200582337  TIP3      2885            0.0000000000
     30906      3077  TIP3      H1             -7.1668210905      -22.8851032101       41.8822822532  TIP3      2885            0.0000000000
     30907      3077  TIP3      H2             -7.5310295899      -24.3172846994       41.7801553692  TIP3      2885            0.0000000000
     30908      3078  TIP3      OH2             0.7160619225      -30.2735053457       41.9931096561  TIP3      2886            0.0000000000
     30909      3078  TIP3      H1              0.0455363054      -30.5786412710       41.3262293704  TIP3      2886            0.0000000000
     30910      3078  TIP3      H2              0.6736961566      -29.3188019228       41.7606534566  TIP3      2886            0.0000000000
     30911      3079  TIP3      OH2           -15.6982108603      -27.4013187627       40.1850569022  TIP3      2887            0.0000000000
     30912      3079  TIP3      H1            -15.0859885039      -26.8623568540       40.7371512319  TIP3      2887            0.0000000000
     30913      3079  TIP3      H2            -16.5669947155      -27.1781590277       40.5572045292  TIP3      2887            0.0000000000
     30914      3080  TIP3      OH2            -3.7292034041      -23.4893713947       40.3646156623  TIP3      2888            0.0000000000
     30915      3080  TIP3      H1             -3.3864893653      -23.7317240702       41.2380770878  TIP3      2888            0.0000000000
     30916      3080  TIP3      H2             -4.6805091402      -23.4292936684       40.5753207888  TIP3      2888            0.0000000000
     30917      3081  TIP3      OH2             0.6922044395      -19.0280065401       40.5476064916  TIP3      2889            0.0000000000
     30918      3081  TIP3      H1              1.4592144862      -18.4284503590       40.4964631432  TIP3      2889            0.0000000000
     30919      3081  TIP3      H2              0.0192539778      -18.4072166537       40.8902869992  TIP3      2889            0.0000000000
     30920      3082  TIP3      OH2            -9.5769205489      -22.3503233409       38.8245407839  TIP3      2890            0.0000000000
     30921      3082  TIP3      H1             -9.5265873736      -23.1202616408       38.2452634379  TIP3      2890            0.0000000000
     30922      3082  TIP3      H2            -10.0191447571      -22.7328044104       39.6219650905  TIP3      2890            0.0000000000
     30923      3083  TIP3      OH2           -10.7954485448      -22.8345684564       41.2520494509  TIP3      2891            0.0000000000
     30924      3083  TIP3      H1            -10.6025284493      -23.2885210860       42.0846329030  TIP3      2891            0.0000000000
     30925      3083  TIP3      H2            -10.7024626476      -21.9097167436       41.5639614893  TIP3      2891            0.0000000000
     30926      3084  TIP3      OH2           -14.4347224100      -25.5154669911       41.6457007358  TIP3      2892            0.0000000000
     30927      3084  TIP3      H1            -14.9750882744      -25.2347327337       42.3788389376  TIP3      2892            0.0000000000
     30928      3084  TIP3      H2            -13.7606793572      -24.8127034993       41.5330339208  TIP3      2892            0.0000000000
     30929      3085  TIP3      OH2            -8.3924904702      -21.3975703000       41.2907813582  TIP3      2893            0.0000000000
     30930      3085  TIP3      H1             -8.9773179097      -20.8024048724       41.8071105958  TIP3      2893            0.0000000000
     30931      3085  TIP3      H2             -7.6532314066      -20.7671058750       41.2225282894  TIP3      2893            0.0000000000
     30932      3086  TIP3      OH2           -10.6130466959      -20.1013469478       42.0591017454  TIP3      2894            0.0000000000
     30933      3086  TIP3      H1            -10.5503727552      -19.3214639306       41.4502580924  TIP3      2894            0.0000000000
     30934      3086  TIP3      H2            -10.8760346169      -19.6900793407       42.8890798699  TIP3      2894            0.0000000000
     30935      3087  TIP3      OH2           -12.0637976998      -33.5654422740       41.3808923334  TIP3      2895            0.0000000000
     30936      3087  TIP3      H1            -12.3125050006      -32.6821840179       41.7668765003  TIP3      2895            0.0000000000
     30937      3087  TIP3      H2            -11.1756282868      -33.6057490007       41.7577942791  TIP3      2895            0.0000000000
     30938      3088  TIP3      OH2           -13.7349192534      -22.9150171168       40.6517346822  TIP3      2896            0.0000000000
     30939      3088  TIP3      H1            -13.0722365746      -22.2854220438       40.9599451370  TIP3      2896            0.0000000000
     30940      3088  TIP3      H2            -13.1965628579      -23.3872770934       39.9896421773  TIP3      2896            0.0000000000
     30941      3089  TIP3      OH2           -15.4105157110      -30.2280569056       39.6851088421  TIP3      2897            0.0000000000
     30942      3089  TIP3      H1            -15.4009192254      -29.3168539903       40.0334718889  TIP3      2897            0.0000000000
     30943      3089  TIP3      H2            -16.3236785823      -30.4500725125       39.5442738191  TIP3      2897            0.0000000000
     30944      3090  TIP3      OH2            -7.5961011378      -20.4526353156       38.9346584098  TIP3      2898            0.0000000000
     30945      3090  TIP3      H1             -8.2902206733      -21.1070847532       39.2057672458  TIP3      2898            0.0000000000
     30946      3090  TIP3      H2             -6.8833286760      -21.0479895979       38.6804407877  TIP3      2898            0.0000000000
     30947      3091  TIP3      OH2            -3.0670909841      -20.7390010832       39.0769411337  TIP3      2899            0.0000000000
     30948      3091  TIP3      H1             -2.7329679342      -21.4461877663       39.6549330648  TIP3      2899            0.0000000000
     30949      3091  TIP3      H2             -2.2636196500      -20.4858163950       38.5897466297  TIP3      2899            0.0000000000
     30950      3092  TIP3      OH2           -12.1478629599      -24.8016833202       38.9935724675  TIP3      2900            0.0000000000
     30951      3092  TIP3      H1            -11.9972485243      -25.5636111754       39.5732721924  TIP3      2900            0.0000000000
     30952      3092  TIP3      H2            -11.4051761768      -24.8977439072       38.3682785957  TIP3      2900            0.0000000000
     30953      3093  TIP3      OH2            -6.6072001124      -23.7397782346       38.8079856082  TIP3      2901            0.0000000000
     30954      3093  TIP3      H1             -7.0555699975      -23.5391112126       39.6562303450  TIP3      2901            0.0000000000
     30955      3093  TIP3      H2             -7.0251977771      -24.6191667408       38.5862821527  TIP3      2901            0.0000000000
     30956      3094  TIP3      OH2           -10.9545861613      -26.7945727858       41.3398959579  TIP3      2902            0.0000000000
     30957      3094  TIP3      H1            -11.4305507264      -27.3283419737       41.9950741028  TIP3      2902            0.0000000000
     30958      3094  TIP3      H2            -10.6880704012      -27.4822943127       40.6912844713  TIP3      2902            0.0000000000
     30959      3095  TIP3      OH2            -9.8414182582      -28.5516305435       39.5661045325  TIP3      2903            0.0000000000
     30960      3095  TIP3      H1            -10.0209132049      -28.6789210562       38.6113664616  TIP3      2903            0.0000000000
     30961      3095  TIP3      H2             -8.8725168837      -28.4893071386       39.6413979054  TIP3      2903            0.0000000000
     30962      3096  TIP3      OH2            -0.5878771502      -26.1907799790       39.0867167368  TIP3      2904            0.0000000000
     30963      3096  TIP3      H1             -0.6827038481      -26.6017797782       38.2034625435  TIP3      2904            0.0000000000
     30964      3096  TIP3      H2             -0.4186607107      -25.2515214507       38.8203704465  TIP3      2904            0.0000000000
     30965      3097  TIP3      OH2           -10.0125550803      -17.8425438673       40.6882995533  TIP3      2905            0.0000000000
     30966      3097  TIP3      H1             -9.0386295059      -17.7589465943       40.7292022697  TIP3      2905            0.0000000000
     30967      3097  TIP3      H2            -10.1902942360      -17.2407011379       39.9508511202  TIP3      2905            0.0000000000
     30968      3098  TIP3      OH2           -16.4786172723      -23.2615546133       40.1302445626  TIP3      2906            0.0000000000
     30969      3098  TIP3      H1            -15.5220140061      -23.1675248778       40.3418372538  TIP3      2906            0.0000000000
     30970      3098  TIP3      H2            -16.4165506853      -23.9335740187       39.4185997586  TIP3      2906            0.0000000000
     30971      3099  TIP3      OH2             0.7010861773      -27.4609610756       41.1640107579  TIP3      2907            0.0000000000
     30972      3099  TIP3      H1              0.1910492345      -27.0525504015       40.4261243318  TIP3      2907            0.0000000000
     30973      3099  TIP3      H2              0.6781244110      -26.7780288207       41.8670013595  TIP3      2907            0.0000000000
     30974      3100  TIP3      OH2            -0.9484607299      -30.1731330619       39.8019272745  TIP3      2908            0.0000000000
     30975      3100  TIP3      H1             -0.9007825104      -29.5235420691       39.0851133832  TIP3      2908            0.0000000000
     30976      3100  TIP3      H2             -1.1728913367      -30.9731986608       39.2814764193  TIP3      2908            0.0000000000
     30977      3101  TIP3      OH2            -1.7428065510      -32.7242898482       38.9265952979  TIP3      2909            0.0000000000
     30978      3101  TIP3      H1             -1.1339359204      -33.1362977882       39.5395528136  TIP3      2909            0.0000000000
     30979      3101  TIP3      H2             -2.5983844639      -33.1513475440       39.1014150417  TIP3      2909            0.0000000000
     30980      3102  TIP3      OH2             0.3826445978      -33.9364597307       40.5698709913  TIP3      2910            0.0000000000
     30981      3102  TIP3      H1              0.7410294832      -34.5710806070       39.9047896165  TIP3      2910            0.0000000000
     30982      3102  TIP3      H2              1.0206414257      -33.2038271411       40.4696946128  TIP3      2910            0.0000000000
     30983      3103  TIP3      OH2           -16.0881840497      -35.8375671195       41.5042513587  TIP3      2911            0.0000000000
     30984      3103  TIP3      H1            -15.6366668392      -35.1533860948       40.9922164920  TIP3      2911            0.0000000000
     30985      3103  TIP3      H2            -16.6741579121      -35.2714009663       42.0030379438  TIP3      2911            0.0000000000
     30986      3104  TIP3      OH2           -14.3185691254      -33.9501582047       39.9766021227  TIP3      2912            0.0000000000
     30987      3104  TIP3      H1            -13.7245521991      -34.5197742785       39.4585770332  TIP3      2912            0.0000000000
     30988      3104  TIP3      H2            -13.7076292028      -33.5731474758       40.6566237507  TIP3      2912            0.0000000000
     30989      3105  TIP3      OH2            -7.3565135763      -18.6148931322       40.8649704566  TIP3      2913            0.0000000000
     30990      3105  TIP3      H1             -6.4479824471      -18.3392527493       40.6646947474  TIP3      2913            0.0000000000
     30991      3105  TIP3      H2             -7.5472873651      -19.1262394577       40.0471504572  TIP3      2913            0.0000000000
     30992      3106  TIP3      OH2           -14.4031860259      -18.9090359351       39.4612843181  TIP3      2914            0.0000000000
     30993      3106  TIP3      H1            -14.6692074398      -18.6639865797       40.3627511066  TIP3      2914            0.0000000000
     30994      3106  TIP3      H2            -13.6320448224      -19.4929282428       39.6083534240  TIP3      2914            0.0000000000
     30995      3107  TIP3      OH2            11.7531856670      -28.6965817294       40.1322075229  TIP3      2915            0.0000000000
     30996      3107  TIP3      H1             12.4670603880      -28.6646112878       40.8078198378  TIP3      2915            0.0000000000
     30997      3107  TIP3      H2             12.1120721316      -29.3911472681       39.5679132660  TIP3      2915            0.0000000000
     30998      3108  TIP3      OH2            13.9957291954      -27.9701700182       41.6357021646  TIP3      2916            0.0000000000
     30999      3108  TIP3      H1             14.4090607297      -27.7000281354       42.4893740048  TIP3      2916            0.0000000000
     31000      3108  TIP3      H2             14.3676707258      -27.3480185560       40.9829608304  TIP3      2916            0.0000000000
     31001      3109  TIP3      OH2            17.7158239252      -36.0068235159       41.6024429639  TIP3      2917            0.0000000000
     31002      3109  TIP3      H1             16.8026328582      -35.8386928753       41.8654572032  TIP3      2917            0.0000000000
     31003      3109  TIP3      H2             17.9889672438      -35.1648345466       41.2256934397  TIP3      2917            0.0000000000
     31004      3110  TIP3      OH2            18.8986787682      -21.7112988632       39.8903828205  TIP3      2918            0.0000000000
     31005      3110  TIP3      H1             19.0251843153      -20.7911224223       40.1843018850  TIP3      2918            0.0000000000
     31006      3110  TIP3      H2             19.8174206509      -22.0131845682       39.9913080847  TIP3      2918            0.0000000000
     31007      3111  TIP3      OH2            14.3037037548      -18.9672201596       40.6712446973  TIP3      2919            0.0000000000
     31008      3111  TIP3      H1             14.7315257086      -19.7063820470       40.1859377887  TIP3      2919            0.0000000000
     31009      3111  TIP3      H2             14.3817338115      -19.2674092665       41.5911277336  TIP3      2919            0.0000000000
     31010      3112  TIP3      OH2            15.5199902309      -26.8154525654       39.5361037581  TIP3      2920            0.0000000000
     31011      3112  TIP3      H1             15.4608138333      -26.9930408331       38.5617099583  TIP3      2920            0.0000000000
     31012      3112  TIP3      H2             16.3577007591      -26.3348907198       39.5608272325  TIP3      2920            0.0000000000
     31013      3113  TIP3      OH2            11.0730669803      -32.9053195933       40.0649719632  TIP3      2921            0.0000000000
     31014      3113  TIP3      H1             10.7878160032      -32.8904784959       40.9837981232  TIP3      2921            0.0000000000
     31015      3113  TIP3      H2             10.7800106965      -33.7858659330       39.7751347235  TIP3      2921            0.0000000000
     31016      3114  TIP3      OH2             7.9126921442      -32.4710301272       39.1947238650  TIP3      2922            0.0000000000
     31017      3114  TIP3      H1              7.4324148157      -32.8957969987       39.9302704992  TIP3      2922            0.0000000000
     31018      3114  TIP3      H2              7.2030413974      -32.0923547419       38.6568272329  TIP3      2922            0.0000000000
     31019      3115  TIP3      OH2             2.3726768396      -32.1235158357       41.4053975876  TIP3      2923            0.0000000000
     31020      3115  TIP3      H1              2.9945140518      -31.4829034290       40.9646905573  TIP3      2923            0.0000000000
     31021      3115  TIP3      H2              1.7426483862      -31.4330550031       41.6963385433  TIP3      2923            0.0000000000
     31022      3116  TIP3      OH2             6.5702230705      -29.7788251835       40.6277285918  TIP3      2924            0.0000000000
     31023      3116  TIP3      H1              6.0346380547      -30.0759022133       39.8718564548  TIP3      2924            0.0000000000
     31024      3116  TIP3      H2              7.3696168844      -29.4969546454       40.1498764657  TIP3      2924            0.0000000000
     31025      3117  TIP3      OH2            13.7734994729      -32.3088688153       40.6742350488  TIP3      2925            0.0000000000
     31026      3117  TIP3      H1             12.8152467176      -32.1864458582       40.5909287732  TIP3      2925            0.0000000000
     31027      3117  TIP3      H2             14.0866547954      -31.4936071371       41.1108931188  TIP3      2925            0.0000000000
     31028      3118  TIP3      OH2            14.5031733802      -30.4302956531       42.3479568422  TIP3      2926            0.0000000000
     31029      3118  TIP3      H1             15.4029524406      -30.5642787861       42.6765600182  TIP3      2926            0.0000000000
     31030      3118  TIP3      H2             14.5617454043      -29.6169807911       41.8139696388  TIP3      2926            0.0000000000
     31031      3119  TIP3      OH2            12.0301449490      -23.7059896571       41.5467657480  TIP3      2927            0.0000000000
     31032      3119  TIP3      H1             11.6762961137      -22.8731720184       41.8833625427  TIP3      2927            0.0000000000
     31033      3119  TIP3      H2             11.3226301852      -24.3236662896       41.7664781389  TIP3      2927            0.0000000000
     31034      3120  TIP3      OH2            19.5525564202      -30.2342676002       41.9759641771  TIP3      2928            0.0000000000
     31035      3120  TIP3      H1             18.8929369584      -30.5950960222       41.3379275794  TIP3      2928            0.0000000000
     31036      3120  TIP3      H2             19.5234045594      -29.2877036715       41.7401104238  TIP3      2928            0.0000000000
     31037      3121  TIP3      OH2             3.1701391014      -27.4654271226       40.2500768422  TIP3      2929            0.0000000000
     31038      3121  TIP3      H1              3.7663916543      -26.8287731337       40.7112850850  TIP3      2929            0.0000000000
     31039      3121  TIP3      H2              2.2954292930      -27.1506022464       40.5323515157  TIP3      2929            0.0000000000
     31040      3122  TIP3      OH2            15.1350640422      -23.4594931691       40.3324799214  TIP3      2930            0.0000000000
     31041      3122  TIP3      H1             15.4281455270      -23.7803280889       41.1906765252  TIP3      2930            0.0000000000
     31042      3122  TIP3      H2             14.1705311678      -23.5569549571       40.4435446074  TIP3      2930            0.0000000000
     31043      3123  TIP3      OH2            19.5446413452      -19.0270825902       40.5358782296  TIP3      2931            0.0000000000
     31044      3123  TIP3      H1             20.3124746708      -18.4287282278       40.4990744290  TIP3      2931            0.0000000000
     31045      3123  TIP3      H2             18.8715660684      -18.4210881450       40.9052090857  TIP3      2931            0.0000000000
     31046      3124  TIP3      OH2             9.2363757204      -22.3349562759       38.8110862865  TIP3      2932            0.0000000000
     31047      3124  TIP3      H1              9.3590561274      -23.1158680518       38.2544144859  TIP3      2932            0.0000000000
     31048      3124  TIP3      H2              8.8526997558      -22.7400983527       39.6245277267  TIP3      2932            0.0000000000
     31049      3125  TIP3      OH2             8.0604869939      -22.8356685145       41.2533372245  TIP3      2933            0.0000000000
     31050      3125  TIP3      H1              8.2533292926      -23.2881643011       42.0858491944  TIP3      2933            0.0000000000
     31051      3125  TIP3      H2              8.1542585141      -21.9099286744       41.5626182452  TIP3      2933            0.0000000000
     31052      3126  TIP3      OH2             4.4175550925      -25.5371297881       41.6601631982  TIP3      2934            0.0000000000
     31053      3126  TIP3      H1              3.8783776767      -25.2082645555       42.3732245548  TIP3      2934            0.0000000000
     31054      3126  TIP3      H2              5.0959733302      -24.8403749514       41.5332853527  TIP3      2934            0.0000000000
     31055      3127  TIP3      OH2            10.4392802925      -21.3842611225       41.2916591312  TIP3      2935            0.0000000000
     31056      3127  TIP3      H1              9.8713697084      -20.7837007102       41.8155396174  TIP3      2935            0.0000000000
     31057      3127  TIP3      H2             11.2040937800      -20.7839605317       41.2167791829  TIP3      2935            0.0000000000
     31058      3128  TIP3      OH2             8.2362719039      -20.0984734003       42.0588011944  TIP3      2936            0.0000000000
     31059      3128  TIP3      H1              8.3055298354      -19.3198804338       41.4497203997  TIP3      2936            0.0000000000
     31060      3128  TIP3      H2              7.9788120702      -19.6885702187       42.8902261937  TIP3      2936            0.0000000000
     31061      3129  TIP3      OH2             6.7436945150      -33.5219768192       41.4056927127  TIP3      2937            0.0000000000
     31062      3129  TIP3      H1              6.6199434433      -32.6440545119       41.7798617013  TIP3      2937            0.0000000000
     31063      3129  TIP3      H2              7.6506196107      -33.6361687385       41.7331578155  TIP3      2937            0.0000000000
     31064      3130  TIP3      OH2             5.1201219534      -22.9168754402       40.6523934540  TIP3      2938            0.0000000000
     31065      3130  TIP3      H1              5.7818822168      -22.2850797111       40.9585654081  TIP3      2938            0.0000000000
     31066      3130  TIP3      H2              5.6599327909      -23.3873621280       39.9898807099  TIP3      2938            0.0000000000
     31067      3131  TIP3      OH2             3.4368725177      -30.2496349975       39.8606235823  TIP3      2939            0.0000000000
     31068      3131  TIP3      H1              3.4539476761      -29.2734024349       39.9677733942  TIP3      2939            0.0000000000
     31069      3131  TIP3      H2              2.5810294090      -30.4385955907       39.4727629962  TIP3      2939            0.0000000000
     31070      3132  TIP3      OH2            11.2540907739      -20.4516056066       38.9254054136  TIP3      2940            0.0000000000
     31071      3132  TIP3      H1             10.5741504498      -21.1158395798       39.2058061038  TIP3      2940            0.0000000000
     31072      3132  TIP3      H2             11.9726344908      -21.0570757244       38.6862981263  TIP3      2940            0.0000000000
     31073      3133  TIP3      OH2            15.8076813869      -20.7130669337       39.0998543022  TIP3      2941            0.0000000000
     31074      3133  TIP3      H1             16.0983870256      -21.4679823812       39.6396080773  TIP3      2941            0.0000000000
     31075      3133  TIP3      H2             16.5998939015      -20.5022572381       38.5823405638  TIP3      2941            0.0000000000
     31076      3134  TIP3      OH2             6.7056882034      -24.8011960623       38.9927407759  TIP3      2942            0.0000000000
     31077      3134  TIP3      H1              6.8682618787      -25.5613410720       39.5674344732  TIP3      2942            0.0000000000
     31078      3134  TIP3      H2              7.4499505654      -24.8926911991       38.3654418855  TIP3      2942            0.0000000000
     31079      3135  TIP3      OH2            12.1571210307      -23.6944983054       38.7656556315  TIP3      2943            0.0000000000
     31080      3135  TIP3      H1             11.8804649926      -23.5945738118       39.6906291705  TIP3      2943            0.0000000000
     31081      3135  TIP3      H2             11.9305977021      -24.6436496405       38.6015271201  TIP3      2943            0.0000000000
     31082      3136  TIP3      OH2             7.9012990775      -26.7968890521       41.3278997981  TIP3      2944            0.0000000000
     31083      3136  TIP3      H1              7.4430513514      -27.3167652800       42.0034084766  TIP3      2944            0.0000000000
     31084      3136  TIP3      H2              8.1967186476      -27.4733602514       40.6818613258  TIP3      2944            0.0000000000
     31085      3137  TIP3      OH2             8.9813520337      -28.5772521259       39.5789622717  TIP3      2945            0.0000000000
     31086      3137  TIP3      H1              8.8463699386      -28.6594559519       38.6092821952  TIP3      2945            0.0000000000
     31087      3137  TIP3      H2              9.9550868535      -28.4831430617       39.6612528526  TIP3      2945            0.0000000000
     31088      3138  TIP3      OH2            18.3211879943      -26.1896806585       39.0802353761  TIP3      2946            0.0000000000
     31089      3138  TIP3      H1             18.1443593603      -26.5957089860       38.2093520702  TIP3      2946            0.0000000000
     31090      3138  TIP3      H2             18.4081117475      -25.2413010515       38.8209672818  TIP3      2946            0.0000000000
     31091      3139  TIP3      OH2             8.8434765901      -17.8421485492       40.6889727734  TIP3      2947            0.0000000000
     31092      3139  TIP3      H1              9.8174166955      -17.7593394209       40.7287674038  TIP3      2947            0.0000000000
     31093      3139  TIP3      H2              8.6667252000      -17.2410492725       39.9509230081  TIP3      2947            0.0000000000
     31094      3140  TIP3      OH2             2.3773103188      -23.2643008175       40.1319714081  TIP3      2948            0.0000000000
     31095      3140  TIP3      H1              3.3341506001      -23.1654864152       40.3416131306  TIP3      2948            0.0000000000
     31096      3140  TIP3      H2              2.4400923633      -23.9317736837       39.4169575522  TIP3      2948            0.0000000000
     31097      3141  TIP3      OH2            19.5617033729      -27.4436589174       41.1434489062  TIP3      2949            0.0000000000
     31098      3141  TIP3      H1             19.0267230428      -27.0406241574       40.4198090858  TIP3      2949            0.0000000000
     31099      3141  TIP3      H2             19.5280291609      -26.7858699944       41.8716590964  TIP3      2949            0.0000000000
     31100      3142  TIP3      OH2            17.8846203437      -30.1393088107       39.7864784615  TIP3      2950            0.0000000000
     31101      3142  TIP3      H1             17.9522518350      -29.5094410329       39.0619998773  TIP3      2950            0.0000000000
     31102      3142  TIP3      H2             17.6987378959      -30.9776263547       39.3142613284  TIP3      2950            0.0000000000
     31103      3143  TIP3      OH2            17.1161611825      -32.7164032966       38.9206780932  TIP3      2951            0.0000000000
     31104      3143  TIP3      H1             17.7181529686      -33.1346174577       39.5596387001  TIP3      2951            0.0000000000
     31105      3143  TIP3      H2             16.2642963743      -33.1449301795       39.1203238915  TIP3      2951            0.0000000000
     31106      3144  TIP3      OH2            19.1904218561      -33.8579719306       40.4610706338  TIP3      2952            0.0000000000
     31107      3144  TIP3      H1             19.6055098570      -34.5972384435       39.9610682691  TIP3      2952            0.0000000000
     31108      3144  TIP3      H2             19.9093686993      -33.2062605136       40.5317988665  TIP3      2952            0.0000000000
     31109      3145  TIP3      OH2             2.8873413398      -35.7397664856       41.4908217911  TIP3      2953            0.0000000000
     31110      3145  TIP3      H1              3.3302875334      -35.1093039755       40.8878592140  TIP3      2953            0.0000000000
     31111      3145  TIP3      H2              2.3412834592      -35.1092008425       41.9374857744  TIP3      2953            0.0000000000
     31112      3146  TIP3      OH2             4.5267228167      -33.9626078884       40.0165192824  TIP3      2954            0.0000000000
     31113      3146  TIP3      H1              5.1039828370      -34.5071270711       39.4378492537  TIP3      2954            0.0000000000
     31114      3146  TIP3      H2              5.2025883279      -33.6020889901       40.6341147609  TIP3      2954            0.0000000000
     31115      3147  TIP3      OH2            11.4989702576      -18.6142759488       40.8641797974  TIP3      2955            0.0000000000
     31116      3147  TIP3      H1             12.4083524957      -18.3403636994       40.6647232943  TIP3      2955            0.0000000000
     31117      3147  TIP3      H2             11.3080521381      -19.1260853159       40.0469204067  TIP3      2955            0.0000000000
     31118      3148  TIP3      OH2             4.4531851797      -18.9075972897       39.4613110484  TIP3      2956            0.0000000000
     31119      3148  TIP3      H1              4.1868746353      -18.6640909841       40.3626148210  TIP3      2956            0.0000000000
     31120      3148  TIP3      H2              5.2238422525      -19.4928240286       39.6077727046  TIP3      2956            0.0000000000
     31121      3149  TIP3      OH2            30.6092310844      -28.6969555854       40.1219145558  TIP3      2957            0.0000000000
     31122      3149  TIP3      H1             31.3180141051      -28.6664825142       40.8013207249  TIP3      2957            0.0000000000
     31123      3149  TIP3      H2             30.9661872841      -29.3938642325       39.5649003735  TIP3      2957            0.0000000000
     31124      3150  TIP3      OH2            32.8071696468      -27.9606152804       41.6671918364  TIP3      2958            0.0000000000
     31125      3150  TIP3      H1             33.2658870289      -27.6965274754       42.4947180909  TIP3      2958            0.0000000000
     31126      3150  TIP3      H2             33.1842260538      -27.3541472914       41.0054883046  TIP3      2958            0.0000000000
     31127      3151  TIP3      OH2            33.1663297576      -18.9548223143       40.6502297522  TIP3      2959            0.0000000000
     31128      3151  TIP3      H1             33.5872156300      -19.7072391440       40.1804404236  TIP3      2959            0.0000000000
     31129      3151  TIP3      H2             33.2265527465      -19.2514761773       41.5705593112  TIP3      2959            0.0000000000
     31130      3152  TIP3      OH2            34.4213466500      -26.8758822095       39.5581771536  TIP3      2960            0.0000000000
     31131      3152  TIP3      H1             34.3350544911      -27.0215551445       38.5840150433  TIP3      2960            0.0000000000
     31132      3152  TIP3      H2             35.1866362654      -26.3014021330       39.5774980941  TIP3      2960            0.0000000000
     31133      3153  TIP3      OH2            29.9371403668      -32.9075044882       40.0658803494  TIP3      2961            0.0000000000
     31134      3153  TIP3      H1             29.6424297076      -32.8893992135       40.9825337486  TIP3      2961            0.0000000000
     31135      3153  TIP3      H2             29.6334642026      -33.7831262869       39.7740723929  TIP3      2961            0.0000000000
     31136      3154  TIP3      OH2            26.7596477634      -32.4695946356       39.1975001590  TIP3      2962            0.0000000000
     31137      3154  TIP3      H1             26.2792733929      -32.8991894551       39.9321665313  TIP3      2962            0.0000000000
     31138      3154  TIP3      H2             26.0511758658      -32.0921873706       38.6574763520  TIP3      2962            0.0000000000
     31139      3155  TIP3      OH2            21.2680035613      -32.1020884651       41.5853389626  TIP3      2963            0.0000000000
     31140      3155  TIP3      H1             21.8139260021      -31.4462778793       41.1011183813  TIP3      2963            0.0000000000
     31141      3155  TIP3      H2             20.6190577744      -31.4860195395       41.9702379184  TIP3      2963            0.0000000000
     31142      3156  TIP3      OH2            25.4468749352      -29.7664214992       40.6213034017  TIP3      2964            0.0000000000
     31143      3156  TIP3      H1             24.8877329720      -30.0769422523       39.8847976176  TIP3      2964            0.0000000000
     31144      3156  TIP3      H2             26.2394650593      -29.4975048178       40.1328023584  TIP3      2964            0.0000000000
     31145      3157  TIP3      OH2            32.6682522799      -32.3139256566       40.6699010812  TIP3      2965            0.0000000000
     31146      3157  TIP3      H1             31.7016089982      -32.2243902366       40.5786451733  TIP3      2965            0.0000000000
     31147      3157  TIP3      H2             32.9075162397      -31.4787043642       41.1107887835  TIP3      2965            0.0000000000
     31148      3158  TIP3      OH2            33.3506432407      -30.3912622094       42.3622191280  TIP3      2966            0.0000000000
     31149      3158  TIP3      H1             34.2472906369      -30.6034717858       42.6310271547  TIP3      2966            0.0000000000
     31150      3158  TIP3      H2             33.4265272314      -29.5990757345       41.8032960237  TIP3      2966            0.0000000000
     31151      3159  TIP3      OH2            30.8846457321      -23.7155245270       41.5581811065  TIP3      2967            0.0000000000
     31152      3159  TIP3      H1             30.5367489630      -22.8759315153       41.8801031646  TIP3      2967            0.0000000000
     31153      3159  TIP3      H2             30.1677463079      -24.3254606143       41.7685769613  TIP3      2967            0.0000000000
     31154      3160  TIP3      OH2            22.0257437403      -27.4440249379       40.2266356520  TIP3      2968            0.0000000000
     31155      3160  TIP3      H1             22.6216402346      -26.8400220146       40.7272331269  TIP3      2968            0.0000000000
     31156      3160  TIP3      H2             21.1462634945      -27.1696792603       40.5421405416  TIP3      2968            0.0000000000
     31157      3161  TIP3      OH2            33.9565431114      -23.4627804161       40.3312209047  TIP3      2969            0.0000000000
     31158      3161  TIP3      H1             34.2753718841      -23.7792096569       41.1750502426  TIP3      2969            0.0000000000
     31159      3161  TIP3      H2             33.0011679934      -23.5638908887       40.4436643118  TIP3      2969            0.0000000000
     31160      3162  TIP3      OH2            28.0930570046      -22.3220854063       38.8289671536  TIP3      2970            0.0000000000
     31161      3162  TIP3      H1             28.2161172306      -23.0960606140       38.2601381870  TIP3      2970            0.0000000000
     31162      3162  TIP3      H2             27.7039605824      -22.7537992421       39.6232893650  TIP3      2970            0.0000000000
     31163      3163  TIP3      OH2            26.9373668271      -22.9037901088       41.2501518936  TIP3      2971            0.0000000000
     31164      3163  TIP3      H1             27.1091221065      -23.3419678140       42.0913337301  TIP3      2971            0.0000000000
     31165      3163  TIP3      H2             26.9963576222      -21.9623491710       41.5150211804  TIP3      2971            0.0000000000
     31166      3164  TIP3      OH2            23.2773638281      -25.5382843427       41.6614650143  TIP3      2972            0.0000000000
     31167      3164  TIP3      H1             22.7308355769      -25.2143076808       42.3714690471  TIP3      2972            0.0000000000
     31168      3164  TIP3      H2             23.9460391942      -24.8346215241       41.5292464030  TIP3      2972            0.0000000000
     31169      3165  TIP3      OH2            29.3031864295      -21.3979341554       41.2749950313  TIP3      2973            0.0000000000
     31170      3165  TIP3      H1             28.7808793550      -20.8069074812       41.8094261411  TIP3      2973            0.0000000000
     31171      3165  TIP3      H2             30.0843619006      -20.8199319676       41.1879145242  TIP3      2973            0.0000000000
     31172      3166  TIP3      OH2            26.8588129400      -20.3921803667       41.6994274082  TIP3      2974            0.0000000000
     31173      3166  TIP3      H1             27.0447679731      -19.5349235833       41.2348685055  TIP3      2974            0.0000000000
     31174      3166  TIP3      H2             26.4724634091      -20.2505078546       42.5685810166  TIP3      2974            0.0000000000
     31175      3167  TIP3      OH2            25.6264477330      -33.5339276299       41.3926426318  TIP3      2975            0.0000000000
     31176      3167  TIP3      H1             25.4559461387      -32.6655519308       41.7838053799  TIP3      2975            0.0000000000
     31177      3167  TIP3      H2             26.5272156261      -33.6305753043       41.7377838292  TIP3      2975            0.0000000000
     31178      3168  TIP3      OH2            23.9835225497      -22.9104934848       40.6615352635  TIP3      2976            0.0000000000
     31179      3168  TIP3      H1             24.6453871472      -22.2828236443       40.9513908234  TIP3      2976            0.0000000000
     31180      3168  TIP3      H2             24.5142182100      -23.3844610014       39.9933364914  TIP3      2976            0.0000000000
     31181      3169  TIP3      OH2            22.3138412528      -30.2378575448       39.8101351573  TIP3      2977            0.0000000000
     31182      3169  TIP3      H1             22.2971513863      -29.2789524396       39.9984468690  TIP3      2977            0.0000000000
     31183      3169  TIP3      H2             21.4278615424      -30.4474055389       39.5131921155  TIP3      2977            0.0000000000
     31184      3170  TIP3      OH2            30.1130933232      -20.4575647654       38.9246243396  TIP3      2978            0.0000000000
     31185      3170  TIP3      H1             29.4341487137      -21.1308045184       39.1837630589  TIP3      2978            0.0000000000
     31186      3170  TIP3      H2             30.8373985310      -21.0559817756       38.6763498932  TIP3      2978            0.0000000000
     31187      3171  TIP3      OH2            34.6595887147      -20.7052052887       39.1726472471  TIP3      2979            0.0000000000
     31188      3171  TIP3      H1             34.9604405387      -21.4834659629       39.6651748467  TIP3      2979            0.0000000000
     31189      3171  TIP3      H2             35.4185866574      -20.5280628867       38.5805369135  TIP3      2979            0.0000000000
     31190      3172  TIP3      OH2            25.5608608252      -24.7838708527       39.0008325062  TIP3      2980            0.0000000000
     31191      3172  TIP3      H1             25.7280269078      -25.5424853349       39.5769652495  TIP3      2980            0.0000000000
     31192      3172  TIP3      H2             26.3087362714      -24.8748305078       38.3774341793  TIP3      2980            0.0000000000
     31193      3173  TIP3      OH2            31.0167732682      -23.6946301248       38.7723238237  TIP3      2981            0.0000000000
     31194      3173  TIP3      H1             30.7141949791      -23.5860870359       39.6860402979  TIP3      2981            0.0000000000
     31195      3173  TIP3      H2             30.7803623046      -24.6423172426       38.6042719605  TIP3      2981            0.0000000000
     31196      3174  TIP3      OH2            26.7570423599      -26.7937338498       41.3280010688  TIP3      2982            0.0000000000
     31197      3174  TIP3      H1             26.2994653862      -27.3158439008       42.0027268931  TIP3      2982            0.0000000000
     31198      3174  TIP3      H2             27.0498948790      -27.4719577133       40.6836765414  TIP3      2982            0.0000000000
     31199      3175  TIP3      OH2            27.8350820936      -28.5892819122       39.5771828832  TIP3      2983            0.0000000000
     31200      3175  TIP3      H1             27.7031297284      -28.6629032719       38.6078060322  TIP3      2983            0.0000000000
     31201      3175  TIP3      H2             28.8089377902      -28.4837270638       39.6603026104  TIP3      2983            0.0000000000
     31202      3176  TIP3      OH2            27.7158695483      -17.8352343419       40.7756420872  TIP3      2984            0.0000000000
     31203      3176  TIP3      H1             28.6901725429      -17.7451178872       40.6972765516  TIP3      2984            0.0000000000
     31204      3176  TIP3      H2             27.5178048991      -17.2996838914       39.9704222411  TIP3      2984            0.0000000000
     31205      3177  TIP3      OH2            21.2344463682      -23.2639044938       40.1308874820  TIP3      2985            0.0000000000
     31206      3177  TIP3      H1             22.1917009526      -23.1664307047       40.3396136892  TIP3      2985            0.0000000000
     31207      3177  TIP3      H2             21.2944323883      -23.9328458874       39.4168657536  TIP3      2985            0.0000000000
     31208      3178  TIP3      OH2            35.9551703313      -32.7548302861       38.9219484146  TIP3      2986            0.0000000000
     31209      3178  TIP3      H1             36.5551638474      -33.0909422676       39.5833449977  TIP3      2986            0.0000000000
     31210      3178  TIP3      H2             35.0755777710      -33.1285198521       39.1141933619  TIP3      2986            0.0000000000
     31211      3179  TIP3      OH2            21.6341657330      -35.8446739438       41.5084260897  TIP3      2987            0.0000000000
     31212      3179  TIP3      H1             22.0679053481      -35.1644973355       40.9821974984  TIP3      2987            0.0000000000
     31213      3179  TIP3      H2             21.0269473162      -35.2903846076       41.9968984893  TIP3      2987            0.0000000000
     31214      3180  TIP3      OH2            23.3999394279      -33.9216468483       39.9774498957  TIP3      2988            0.0000000000
     31215      3180  TIP3      H1             23.9637285461      -34.5245931953       39.4541160695  TIP3      2988            0.0000000000
     31216      3180  TIP3      H2             24.0303961003      -33.6048623952       40.6579319847  TIP3      2988            0.0000000000
     31217      3181  TIP3      OH2            30.3327909098      -18.6129138209       40.8556806631  TIP3      2989            0.0000000000
     31218      3181  TIP3      H1             31.2541312082      -18.3412415121       40.6676576576  TIP3      2989            0.0000000000
     31219      3181  TIP3      H2             30.1786291817      -19.1308895231       40.0326360128  TIP3      2989            0.0000000000
     31220      3182  TIP3      OH2            23.3220272172      -18.8989219144       39.4621829848  TIP3      2990            0.0000000000
     31221      3182  TIP3      H1             23.0166239144      -18.6827164414       40.3554875775  TIP3      2990            0.0000000000
     31222      3182  TIP3      H2             24.0768808071      -19.4952780341       39.6115193427  TIP3      2990            0.0000000000
     31223      3183  TIP3      OH2           -25.9656118886       -9.8462611514       40.1308061830  TIP3      2991            0.0000000000
     31224      3183  TIP3      H1            -25.2549480847       -9.8103481144       40.8081918845  TIP3      2991            0.0000000000
     31225      3183  TIP3      H2            -25.5994089478      -10.5370548906       39.5674032477  TIP3      2991            0.0000000000
     31226      3184  TIP3      OH2           -23.7143814244       -9.1148756410       41.6360534612  TIP3      2992            0.0000000000
     31227      3184  TIP3      H1            -23.3018085019       -8.8425177096       42.4889734933  TIP3      2992            0.0000000000
     31228      3184  TIP3      H2            -23.3471985105       -8.4942521582       40.9789661104  TIP3      2992            0.0000000000
     31229      3185  TIP3      OH2           -19.9563009467      -17.2057819428       41.6758882075  TIP3      2993            0.0000000000
     31230      3185  TIP3      H1            -20.8979291745      -17.1229508051       41.8748348996  TIP3      2993            0.0000000000
     31231      3185  TIP3      H2            -19.7556716455      -16.3688884070       41.2275118095  TIP3      2993            0.0000000000
     31232      3186  TIP3      OH2           -18.8144133434       -2.8549935769       39.9267170398  TIP3      2994            0.0000000000
     31233      3186  TIP3      H1            -18.6728067515       -1.9254706428       40.1842450713  TIP3      2994            0.0000000000
     31234      3186  TIP3      H2            -17.8931767651       -3.1558228900       39.9981753054  TIP3      2994            0.0000000000
     31235      3187  TIP3      OH2           -23.4011028622       -0.1030574273       40.6698947582  TIP3      2995            0.0000000000
     31236      3187  TIP3      H1            -22.9803387546       -0.8488791603       40.1871625524  TIP3      2995            0.0000000000
     31237      3187  TIP3      H2            -23.3414092905       -0.4057014760       41.5871744282  TIP3      2995            0.0000000000
     31238      3188  TIP3      OH2           -22.1926397913       -7.9594880942       39.5330319972  TIP3      2996            0.0000000000
     31239      3188  TIP3      H1            -22.2499577519       -8.1374333888       38.5580987599  TIP3      2996            0.0000000000
     31240      3188  TIP3      H2            -21.3544141066       -7.4794383073       39.5607396301  TIP3      2996            0.0000000000
     31241      3189  TIP3      OH2           -26.6284477732      -14.0875919959       40.0640337822  TIP3      2997            0.0000000000
     31242      3189  TIP3      H1            -26.9219211156      -14.0173856268       40.9870697067  TIP3      2997            0.0000000000
     31243      3189  TIP3      H2            -26.9727639427      -14.9459998064       39.7986035275  TIP3      2997            0.0000000000
     31244      3190  TIP3      OH2           -29.7735706981      -13.6756145027       39.1674587147  TIP3      2998            0.0000000000
     31245      3190  TIP3      H1            -30.2530827634      -14.0431506615       39.9397778581  TIP3      2998            0.0000000000
     31246      3190  TIP3      H2            -30.4899217448      -13.2378907168       38.6776779004  TIP3      2998            0.0000000000
     31247      3191  TIP3      OH2           -35.1065512364      -13.1207254380       41.5982254587  TIP3      2999            0.0000000000
     31248      3191  TIP3      H1            -34.6918782064      -12.4530724698       41.0202130167  TIP3      2999            0.0000000000
     31249      3191  TIP3      H2            -35.9354934675      -12.7273622808       41.9217264563  TIP3      2999            0.0000000000
     31250      3192  TIP3      OH2           -31.1205908756      -10.9101397780       40.6175479986  TIP3      3000            0.0000000000
     31251      3192  TIP3      H1            -31.6770594480      -11.2190268664       39.8775727493  TIP3      3000            0.0000000000
     31252      3192  TIP3      H2            -30.3243233106      -10.6376462849       40.1374860659  TIP3      3000            0.0000000000
     31253      3193  TIP3      OH2           -23.9352776457      -13.4720965390       40.6495978312  TIP3      3001            0.0000000000
     31254      3193  TIP3      H1            -24.8953655888      -13.3342476711       40.6159185067  TIP3      3001            0.0000000000
     31255      3193  TIP3      H2            -23.6179091327      -12.6589978277       41.1071508426  TIP3      3001            0.0000000000
     31256      3194  TIP3      OH2           -23.2137043752      -11.5742347761       42.3428336466  TIP3      3002            0.0000000000
     31257      3194  TIP3      H1            -22.3140438361      -11.7071394372       42.6764717299  TIP3      3002            0.0000000000
     31258      3194  TIP3      H2            -23.1541063331      -10.7608578361       41.8120379812  TIP3      3002            0.0000000000
     31259      3195  TIP3      OH2           -25.6815862647       -4.8511164516       41.5481979093  TIP3      3003            0.0000000000
     31260      3195  TIP3      H1            -26.0364947953       -4.0181803437       41.8821009605  TIP3      3003            0.0000000000
     31261      3195  TIP3      H2            -26.3899466654       -5.4677580501       41.7664086326  TIP3      3003            0.0000000000
     31262      3196  TIP3      OH2           -18.1572763811      -11.3769837460       41.9763414014  TIP3      3004            0.0000000000
     31263      3196  TIP3      H1            -18.8177064416      -11.7390997128       41.3392290449  TIP3      3004            0.0000000000
     31264      3196  TIP3      H2            -18.1878340026      -10.4321455847       41.7408528936  TIP3      3004            0.0000000000
     31265      3197  TIP3      OH2           -34.6029061102       -8.6249156362       40.2809339646  TIP3      3005            0.0000000000
     31266      3197  TIP3      H1            -33.9525461814       -8.0105514501       40.7213878138  TIP3      3005            0.0000000000
     31267      3197  TIP3      H2            -35.4414886087       -8.2601968641       40.5619502168  TIP3      3005            0.0000000000
     31268      3198  TIP3      OH2           -22.5729808261       -4.5933806519       40.3442335305  TIP3      3006            0.0000000000
     31269      3198  TIP3      H1            -22.2822137104       -4.9310336298       41.1934697969  TIP3      3006            0.0000000000
     31270      3198  TIP3      H2            -23.5388847875       -4.7000410695       40.4441439982  TIP3      3006            0.0000000000
     31271      3199  TIP3      OH2           -18.1683400634       -0.1662124889       40.5313818231  TIP3      3007            0.0000000000
     31272      3199  TIP3      H1            -17.3967312827        0.4274022347       40.4955417488  TIP3      3007            0.0000000000
     31273      3199  TIP3      H2            -18.8323137643        0.4426842310       40.9015779124  TIP3      3007            0.0000000000
     31274      3200  TIP3      OH2           -28.4746649491       -3.4788105700       38.8115153431  TIP3      3008            0.0000000000
     31275      3200  TIP3      H1            -28.3533951960       -4.2596196774       38.2542461783  TIP3      3008            0.0000000000
     31276      3200  TIP3      H2            -28.8594765204       -3.8839032898       39.6242616250  TIP3      3008            0.0000000000
     31277      3201  TIP3      OH2           -29.6644792493       -3.9807476059       41.2539020118  TIP3      3009            0.0000000000
     31278      3201  TIP3      H1            -29.4592075439       -4.4323890243       42.0845917517  TIP3      3009            0.0000000000
     31279      3201  TIP3      H2            -29.5590919182       -3.0551992547       41.5614299664  TIP3      3009            0.0000000000
     31280      3202  TIP3      OH2           -33.2823990354       -6.6946059478       41.6578632730  TIP3      3010            0.0000000000
     31281      3202  TIP3      H1            -33.8358921788       -6.3543263079       42.3583135190  TIP3      3010            0.0000000000
     31282      3202  TIP3      H2            -32.6278687152       -5.9737175408       41.5287124292  TIP3      3010            0.0000000000
     31283      3203  TIP3      OH2           -27.2702640530       -2.5295850742       41.2940225287  TIP3      3011            0.0000000000
     31284      3203  TIP3      H1            -27.8408092615       -1.9279115438       41.8150597665  TIP3      3011            0.0000000000
     31285      3203  TIP3      H2            -26.5073810460       -1.9279949995       41.2164100537  TIP3      3011            0.0000000000
     31286      3204  TIP3      OH2           -29.4748020981       -1.2468374633       42.0552371630  TIP3      3012            0.0000000000
     31287      3204  TIP3      H1            -29.4080981404       -0.4651405077       41.4496715557  TIP3      3012            0.0000000000
     31288      3204  TIP3      H2            -29.7350656457       -0.8388211377       42.8842814055  TIP3      3012            0.0000000000
     31289      3205  TIP3      OH2           -30.9423532025      -14.6558568642       41.4003567461  TIP3      3013            0.0000000000
     31290      3205  TIP3      H1            -31.0961891528      -13.7937851225       41.7950855344  TIP3      3013            0.0000000000
     31291      3205  TIP3      H2            -30.0494002666      -14.8034495450       41.7574469228  TIP3      3013            0.0000000000
     31292      3206  TIP3      OH2           -32.6159765366       -4.0430223374       40.6314414901  TIP3      3014            0.0000000000
     31293      3206  TIP3      H1            -31.9601726819       -3.4105448896       40.9552958161  TIP3      3014            0.0000000000
     31294      3206  TIP3      H2            -32.0530878725       -4.5270312987       39.9950899858  TIP3      3014            0.0000000000
     31295      3207  TIP3      OH2           -34.2684415960      -11.3916647444       39.7603185632  TIP3      3015            0.0000000000
     31296      3207  TIP3      H1            -34.2557271651      -10.4368803540       39.9641458387  TIP3      3015            0.0000000000
     31297      3207  TIP3      H2            -35.1592189878      -11.6073904442       39.4737180792  TIP3      3015            0.0000000000
     31298      3208  TIP3      OH2           -26.4530168673       -1.5966201813       38.9295345825  TIP3      3016            0.0000000000
     31299      3208  TIP3      H1            -27.1364571663       -2.2589146903       39.2064141105  TIP3      3016            0.0000000000
     31300      3208  TIP3      H2            -25.7369386663       -2.2031715955       38.6861732822  TIP3      3016            0.0000000000
     31301      3209  TIP3      OH2           -21.9051861859       -1.8588492740       39.1015545127  TIP3      3017            0.0000000000
     31302      3209  TIP3      H1            -21.6133098313       -2.6123819447       39.6407929938  TIP3      3017            0.0000000000
     31303      3209  TIP3      H2            -21.1130004722       -1.6460396480       38.5830038856  TIP3      3017            0.0000000000
     31304      3210  TIP3      OH2           -31.0079331929       -5.9443283824       38.9903245311  TIP3      3018            0.0000000000
     31305      3210  TIP3      H1            -30.8460916286       -6.7038180910       39.5641977810  TIP3      3018            0.0000000000
     31306      3210  TIP3      H2            -30.2616396042       -6.0359782989       38.3655809616  TIP3      3018            0.0000000000
     31307      3211  TIP3      OH2           -25.5369853322       -4.8403369298       38.7823724713  TIP3      3019            0.0000000000
     31308      3211  TIP3      H1            -25.8335261436       -4.7388153537       39.6992219824  TIP3      3019            0.0000000000
     31309      3211  TIP3      H2            -25.7796937233       -5.7839338954       38.6044857903  TIP3      3019            0.0000000000
     31310      3212  TIP3      OH2           -29.8110996606       -7.9464194303       41.3230925549  TIP3      3020            0.0000000000
     31311      3212  TIP3      H1            -30.2676434646       -8.4658258494       42.0012699317  TIP3      3020            0.0000000000
     31312      3212  TIP3      H2            -29.5076710850       -8.6191350835       40.6778009727  TIP3      3020            0.0000000000
     31313      3213  TIP3      OH2           -28.7413322039       -9.7195055355       39.5785058203  TIP3      3021            0.0000000000
     31314      3213  TIP3      H1            -28.8698219136       -9.8030975445       38.6089834634  TIP3      3021            0.0000000000
     31315      3213  TIP3      H2            -27.7652448567       -9.6261680028       39.6630983360  TIP3      3021            0.0000000000
     31316      3214  TIP3      OH2           -19.3917172825       -7.3335778216       39.0805632557  TIP3      3022            0.0000000000
     31317      3214  TIP3      H1            -19.5667923975       -7.7402145493       38.2092635197  TIP3      3022            0.0000000000
     31318      3214  TIP3      H2            -19.3033842378       -6.3856364417       38.8206864284  TIP3      3022            0.0000000000
     31319      3215  TIP3      OH2           -28.8722219963        1.0316724900       40.7076128575  TIP3      3023            0.0000000000
     31320      3215  TIP3      H1            -27.8964740388        1.0954295268       40.7274246566  TIP3      3023            0.0000000000
     31321      3215  TIP3      H2            -29.0466749295        1.6144384764       39.9535167704  TIP3      3023            0.0000000000
     31322      3216  TIP3      OH2           -35.3079250236       -4.4050860677       40.1568374198  TIP3      3024            0.0000000000
     31323      3216  TIP3      H1            -34.3557036187       -4.2869276046       40.3563900938  TIP3      3024            0.0000000000
     31324      3216  TIP3      H2            -35.2495192425       -5.0690820463       39.4525409827  TIP3      3024            0.0000000000
     31325      3217  TIP3      OH2           -18.1544268373       -8.5926631263       41.1439632429  TIP3      3025            0.0000000000
     31326      3217  TIP3      H1            -18.6819578689       -8.1867406099       40.4161093901  TIP3      3025            0.0000000000
     31327      3217  TIP3      H2            -18.1814713302       -7.9321924775       41.8678087531  TIP3      3025            0.0000000000
     31328      3218  TIP3      OH2           -19.8283958914      -11.2898385550       39.7823875348  TIP3      3026            0.0000000000
     31329      3218  TIP3      H1            -19.7610434023      -10.6533238557       39.0627534812  TIP3      3026            0.0000000000
     31330      3218  TIP3      H2            -20.0137426927      -12.1248568534       39.3049514116  TIP3      3026            0.0000000000
     31331      3219  TIP3      OH2           -20.6067378641      -13.8758274862       38.8969036649  TIP3      3027            0.0000000000
     31332      3219  TIP3      H1            -19.9960630950      -14.2807382594       39.5417528444  TIP3      3027            0.0000000000
     31333      3219  TIP3      H2            -21.4468026606      -14.2724691962       39.1368874508  TIP3      3027            0.0000000000
     31334      3220  TIP3      OH2           -18.5396941196      -15.0006382406       40.4398307338  TIP3      3028            0.0000000000
     31335      3220  TIP3      H1            -18.1025378283      -15.7394893908       39.9633820463  TIP3      3028            0.0000000000
     31336      3220  TIP3      H2            -17.8108876493      -14.3625352680       40.5432376568  TIP3      3028            0.0000000000
     31337      3221  TIP3      OH2           -34.9926508917      -16.9655513001       41.4396828508  TIP3      3029            0.0000000000
     31338      3221  TIP3      H1            -34.4453584464      -16.2929281874       41.0003371183  TIP3      3029            0.0000000000
     31339      3221  TIP3      H2            -35.5504104624      -16.4274720533       42.0096012925  TIP3      3029            0.0000000000
     31340      3222  TIP3      OH2           -33.1284786069      -15.0184308942       39.9756529012  TIP3      3030            0.0000000000
     31341      3222  TIP3      H1            -32.6163636025      -15.6592279732       39.4529073054  TIP3      3030            0.0000000000
     31342      3222  TIP3      H2            -32.4832736467      -14.7658242929       40.6653288961  TIP3      3030            0.0000000000
     31343      3223  TIP3      OH2           -26.2136287261        0.2418485481       40.8639918365  TIP3      3031            0.0000000000
     31344      3223  TIP3      H1            -25.3041364077        0.5162356056       40.6646643477  TIP3      3031            0.0000000000
     31345      3223  TIP3      H2            -26.4032757246       -0.2698685257       40.0463689542  TIP3      3031            0.0000000000
     31346      3224  TIP3      OH2           -33.2744498138       -0.0675000265       39.4605424350  TIP3      3032            0.0000000000
     31347      3224  TIP3      H1            -33.5453704540        0.1732140533       40.3632485180  TIP3      3032            0.0000000000
     31348      3224  TIP3      H2            -32.4754977378       -0.6141309603       39.6135504385  TIP3      3032            0.0000000000
     31349      3225  TIP3      OH2            -7.1096064815       -9.8439796714       40.1010822694  TIP3      3033            0.0000000000
     31350      3225  TIP3      H1             -6.4168900116       -9.8042251600       40.7991132190  TIP3      3033            0.0000000000
     31351      3225  TIP3      H2             -6.7263019206      -10.5500841769       39.5766484237  TIP3      3033            0.0000000000
     31352      3226  TIP3      OH2            -4.8612875586       -9.1146823773       41.6338688060  TIP3      3034            0.0000000000
     31353      3226  TIP3      H1             -4.4474068400       -8.8438247273       42.4875543100  TIP3      3034            0.0000000000
     31354      3226  TIP3      H2             -4.4885879912       -8.4939019176       40.9805776077  TIP3      3034            0.0000000000
     31355      3227  TIP3      OH2            -1.0994606931      -17.2056252877       41.6773171962  TIP3      3035            0.0000000000
     31356      3227  TIP3      H1             -2.0421334434      -17.1242347777       41.8731255838  TIP3      3035            0.0000000000
     31357      3227  TIP3      H2             -0.9002718446      -16.3691944898       41.2273639754  TIP3      3035            0.0000000000
     31358      3228  TIP3      OH2             0.0383846021       -2.8582794008       39.9107799468  TIP3      3036            0.0000000000
     31359      3228  TIP3      H1              0.1751976987       -1.9284019301       40.1671158287  TIP3      3036            0.0000000000
     31360      3228  TIP3      H2              0.9595858969       -3.1574227316       39.9942532707  TIP3      3036            0.0000000000
     31361      3229  TIP3      OH2            -4.5367860066       -0.0987147067       40.6748002359  TIP3      3037            0.0000000000
     31362      3229  TIP3      H1             -4.1244686294       -0.8473975463       40.1890054087  TIP3      3037            0.0000000000
     31363      3229  TIP3      H2             -4.4859001713       -0.4066777010       41.5903387563  TIP3      3037            0.0000000000
     31364      3230  TIP3      OH2            -3.3380548737       -7.9588115278       39.5314561930  TIP3      3038            0.0000000000
     31365      3230  TIP3      H1             -3.3943699248       -8.1392577751       38.5561361350  TIP3      3038            0.0000000000
     31366      3230  TIP3      H2             -2.4991809709       -7.4796564412       39.5600701240  TIP3      3038            0.0000000000
     31367      3231  TIP3      OH2            -7.7981970155      -14.0579930157       40.0702938719  TIP3      3039            0.0000000000
     31368      3231  TIP3      H1             -8.0709407420      -14.0359792089       40.9964451921  TIP3      3039            0.0000000000
     31369      3231  TIP3      H2             -8.0782642576      -14.9397840752       39.7769662094  TIP3      3039            0.0000000000
     31370      3232  TIP3      OH2           -10.9474717364      -13.6300401247       39.1737941125  TIP3      3040            0.0000000000
     31371      3232  TIP3      H1            -11.3975785723      -14.0409827516       39.9413065631  TIP3      3040            0.0000000000
     31372      3232  TIP3      H2            -11.6879526344      -13.2349945212       38.7009088767  TIP3      3040            0.0000000000
     31373      3233  TIP3      OH2           -16.4478514561      -13.2743107560       41.5745993523  TIP3      3041            0.0000000000
     31374      3233  TIP3      H1            -15.9022009336      -12.6040744834       41.1145163154  TIP3      3041            0.0000000000
     31375      3233  TIP3      H2            -17.0890781468      -12.6474590098       41.9709458596  TIP3      3041            0.0000000000
     31376      3234  TIP3      OH2           -12.2722036472      -10.9100070880       40.6278715205  TIP3      3042            0.0000000000
     31377      3234  TIP3      H1            -12.8215472902      -11.2210652943       39.8830826786  TIP3      3042            0.0000000000
     31378      3234  TIP3      H2            -11.4764272682      -10.6383826765       40.1489952344  TIP3      3042            0.0000000000
     31379      3235  TIP3      OH2            -5.0795237379      -13.4720752589       40.6690035354  TIP3      3043            0.0000000000
     31380      3235  TIP3      H1             -6.0379076276      -13.3428452643       40.5956308845  TIP3      3043            0.0000000000
     31381      3235  TIP3      H2             -4.7654403130      -12.6520578252       41.1025557896  TIP3      3043            0.0000000000
     31382      3236  TIP3      OH2            -4.3584932313      -11.5710702956       42.3490704540  TIP3      3044            0.0000000000
     31383      3236  TIP3      H1             -3.4571819578      -11.7077333784       42.6760614449  TIP3      3044            0.0000000000
     31384      3236  TIP3      H2             -4.2956729464      -10.7643351040       41.8089404831  TIP3      3044            0.0000000000
     31385      3237  TIP3      OH2            -6.8262510185       -4.8536075713       41.5452845148  TIP3      3045            0.0000000000
     31386      3237  TIP3      H1             -7.1788919513       -4.0201778693       41.8803866313  TIP3      3045            0.0000000000
     31387      3237  TIP3      H2             -7.5351345531       -5.4684946017       41.7670435941  TIP3      3045            0.0000000000
     31388      3238  TIP3      OH2             0.7058818484      -11.3827996357       41.9654929660  TIP3      3046            0.0000000000
     31389      3238  TIP3      H1              0.0367590302      -11.7390803630       41.3383684785  TIP3      3046            0.0000000000
     31390      3238  TIP3      H2              0.6678328773      -10.4330078180       41.7413843534  TIP3      3046            0.0000000000
     31391      3239  TIP3      OH2           -15.6867782161       -8.5918989198       40.2288210204  TIP3      3047            0.0000000000
     31392      3239  TIP3      H1            -15.0879753112       -7.9816431289       40.7163747955  TIP3      3047            0.0000000000
     31393      3239  TIP3      H2            -16.5655165672       -8.3131375588       40.5425325013  TIP3      3047            0.0000000000
     31394      3240  TIP3      OH2            -3.7183861556       -4.5922589083       40.3443915000  TIP3      3048            0.0000000000
     31395      3240  TIP3      H1             -3.4271100412       -4.9323641484       41.1922357989  TIP3      3048            0.0000000000
     31396      3240  TIP3      H2             -4.6840773434       -4.7006547761       40.4430920923  TIP3      3048            0.0000000000
     31397      3241  TIP3      OH2             0.6910116205       -0.1679982437       40.5484031096  TIP3      3049            0.0000000000
     31398      3241  TIP3      H1              1.4595277194        0.4286371107       40.4986833629  TIP3      3049            0.0000000000
     31399      3241  TIP3      H2              0.0175721383        0.4485894676       40.8891206998  TIP3      3049            0.0000000000
     31400      3242  TIP3      OH2            -9.6181897844       -3.4796010866       38.8116461378  TIP3      3050            0.0000000000
     31401      3242  TIP3      H1             -9.4988153193       -4.2589996658       38.2514571223  TIP3      3050            0.0000000000
     31402      3242  TIP3      H2            -10.0034565803       -3.8842250589       39.6244323164  TIP3      3050            0.0000000000
     31403      3243  TIP3      OH2           -10.7993001571       -3.9784005163       41.2563262483  TIP3      3051            0.0000000000
     31404      3243  TIP3      H1            -10.6026854806       -4.4324172469       42.0861769794  TIP3      3051            0.0000000000
     31405      3243  TIP3      H2            -10.7017057430       -3.0539957783       41.5630402193  TIP3      3051            0.0000000000
     31406      3244  TIP3      OH2           -14.4347508986       -6.6808874574       41.6605144538  TIP3      3052            0.0000000000
     31407      3244  TIP3      H1            -14.9810604076       -6.3591935598       42.3720506476  TIP3      3052            0.0000000000
     31408      3244  TIP3      H2            -13.7646849493       -5.9767546018       41.5321812036  TIP3      3052            0.0000000000
     31409      3245  TIP3      OH2            -8.4074398264       -2.5282717953       41.3041341230  TIP3      3053            0.0000000000
     31410      3245  TIP3      H1             -8.9832263299       -1.9252224934       41.8177493019  TIP3      3053            0.0000000000
     31411      3245  TIP3      H2             -7.6484325370       -1.9240386295       41.2168039182  TIP3      3053            0.0000000000
     31412      3246  TIP3      OH2           -10.6156014150       -1.2421305035       42.0643122798  TIP3      3054            0.0000000000
     31413      3246  TIP3      H1            -10.5515359946       -0.4652808718       41.4515547248  TIP3      3054            0.0000000000
     31414      3246  TIP3      H2            -10.8942347773       -0.8349262715       42.8913858820  TIP3      3054            0.0000000000
     31415      3247  TIP3      OH2           -12.0864273809      -14.6586888580       41.3983070664  TIP3      3055            0.0000000000
     31416      3247  TIP3      H1            -12.2466842904      -13.7986448654       41.7966565949  TIP3      3055            0.0000000000
     31417      3247  TIP3      H2            -11.1941721573      -14.8041886031       41.7594018063  TIP3      3055            0.0000000000
     31418      3248  TIP3      OH2           -13.7376829698       -4.0599975198       40.6545483176  TIP3      3056            0.0000000000
     31419      3248  TIP3      H1            -13.0811715785       -3.4251145358       40.9688893296  TIP3      3056            0.0000000000
     31420      3248  TIP3      H2            -13.1951408966       -4.5287413142       39.9917367646  TIP3      3056            0.0000000000
     31421      3249  TIP3      OH2           -15.3928101699      -11.3923655243       39.7927360568  TIP3      3057            0.0000000000
     31422      3249  TIP3      H1            -15.4121055827      -10.4348617751       39.9974173046  TIP3      3057            0.0000000000
     31423      3249  TIP3      H2            -16.2882160454      -11.5951619500       39.5215798587  TIP3      3057            0.0000000000
     31424      3250  TIP3      OH2            -7.5965201034       -1.6020864169       38.9255191892  TIP3      3058            0.0000000000
     31425      3250  TIP3      H1             -8.2818189921       -2.2597874276       39.2061830798  TIP3      3058            0.0000000000
     31426      3250  TIP3      H2             -6.8798532554       -2.2051792059       38.6859283662  TIP3      3058            0.0000000000
     31427      3251  TIP3      OH2            -3.0494986360       -1.8586402853       39.1019624963  TIP3      3059            0.0000000000
     31428      3251  TIP3      H1             -2.7574971913       -2.6126905183       39.6404608702  TIP3      3059            0.0000000000
     31429      3251  TIP3      H2             -2.2574505722       -1.6461947626       38.5831700923  TIP3      3059            0.0000000000
     31430      3252  TIP3      OH2           -12.1540338939       -5.9420843806       38.9987755606  TIP3      3060            0.0000000000
     31431      3252  TIP3      H1            -11.9868061199       -6.7059920204       39.5681003570  TIP3      3060            0.0000000000
     31432      3252  TIP3      H2            -11.4103534725       -6.0208482413       38.3730078529  TIP3      3060            0.0000000000
     31433      3253  TIP3      OH2            -6.6799353558       -4.8516195611       38.7798336139  TIP3      3061            0.0000000000
     31434      3253  TIP3      H1             -6.9770514943       -4.7397845776       39.6969214834  TIP3      3061            0.0000000000
     31435      3253  TIP3      H2             -6.9277346729       -5.7894953308       38.6038008193  TIP3      3061            0.0000000000
     31436      3254  TIP3      OH2           -10.9482574057       -7.9508890308       41.3209522947  TIP3      3062            0.0000000000
     31437      3254  TIP3      H1            -11.4115912766       -8.4621520934       42.0005695579  TIP3      3062            0.0000000000
     31438      3254  TIP3      H2            -10.6674189756       -8.6302305229       40.6763515224  TIP3      3062            0.0000000000
     31439      3255  TIP3      OH2            -9.8658552081       -9.7402290657       39.5692160610  TIP3      3063            0.0000000000
     31440      3255  TIP3      H1            -10.0138767226       -9.8038026463       38.6084828333  TIP3      3063            0.0000000000
     31441      3255  TIP3      H2             -8.8956144475       -9.6246706844       39.6755012574  TIP3      3063            0.0000000000
     31442      3256  TIP3      OH2            -0.5340734123       -7.3338043918       39.0802017396  TIP3      3064            0.0000000000
     31443      3256  TIP3      H1             -0.7128084481       -7.7385161746       38.2092008379  TIP3      3064            0.0000000000
     31444      3256  TIP3      H2             -0.4480639473       -6.3851708346       38.8216224291  TIP3      3064            0.0000000000
     31445      3257  TIP3      OH2           -10.0073798906        1.0232745152       40.6916555009  TIP3      3065            0.0000000000
     31446      3257  TIP3      H1             -9.0335677794        1.0992034506       40.7280604748  TIP3      3065            0.0000000000
     31447      3257  TIP3      H2            -10.1855453254        1.6179361913       39.9484082123  TIP3      3065            0.0000000000
     31448      3258  TIP3      OH2           -16.4780866521       -4.4090878091       40.1296295743  TIP3      3066            0.0000000000
     31449      3258  TIP3      H1            -15.5230041936       -4.3061387724       40.3456845143  TIP3      3066            0.0000000000
     31450      3258  TIP3      H2            -16.4136454935       -5.0788330870       39.4139541086  TIP3      3066            0.0000000000
     31451      3259  TIP3      OH2             0.7011369923       -8.5945392456       41.1450803497  TIP3      3067            0.0000000000
     31452      3259  TIP3      H1              0.1695466167       -8.1860206470       40.4237172039  TIP3      3067            0.0000000000
     31453      3259  TIP3      H2              0.6747321312       -7.9335183646       41.8683525734  TIP3      3067            0.0000000000
     31454      3260  TIP3      OH2            -0.9718483261      -11.2885677135       39.7817944390  TIP3      3068            0.0000000000
     31455      3260  TIP3      H1             -0.9079405288      -10.6521565749       39.0625684196  TIP3      3068            0.0000000000
     31456      3260  TIP3      H2             -1.1608393922      -12.1239506044       39.3034446366  TIP3      3068            0.0000000000
     31457      3261  TIP3      OH2            -1.7374301685      -13.8608895124       38.9102156571  TIP3      3069            0.0000000000
     31458      3261  TIP3      H1             -1.1404260469      -14.2871705627       39.5506222185  TIP3      3069            0.0000000000
     31459      3261  TIP3      H2             -2.5915508440      -14.2738260439       39.1116956467  TIP3      3069            0.0000000000
     31460      3262  TIP3      OH2             0.3246427943      -15.0008376835       40.4486624758  TIP3      3070            0.0000000000
     31461      3262  TIP3      H1              0.7561720501      -15.7374349708       39.9643345841  TIP3      3070            0.0000000000
     31462      3262  TIP3      H2              1.0481458079      -14.3570729909       40.5394108450  TIP3      3070            0.0000000000
     31463      3263  TIP3      OH2           -16.0823061780      -16.9551643580       41.4994708301  TIP3      3071            0.0000000000
     31464      3263  TIP3      H1            -15.6131413982      -16.3005728577       40.9676246451  TIP3      3071            0.0000000000
     31465      3263  TIP3      H2            -16.6721646174      -16.3837827645       41.9896093566  TIP3      3071            0.0000000000
     31466      3264  TIP3      OH2           -14.2688776226      -15.0078033576       39.9654842447  TIP3      3072            0.0000000000
     31467      3264  TIP3      H1            -13.7637863250      -15.6621072538       39.4533335870  TIP3      3072            0.0000000000
     31468      3264  TIP3      H2            -13.6244280613      -14.7574298884       40.6593791384  TIP3      3072            0.0000000000
     31469      3265  TIP3      OH2            -7.3522440795        0.2356659406       40.8561136700  TIP3      3073            0.0000000000
     31470      3265  TIP3      H1             -6.4438332104        0.5158469860       40.6600468231  TIP3      3073            0.0000000000
     31471      3265  TIP3      H2             -7.5454290899       -0.2747186581       40.0395493518  TIP3      3073            0.0000000000
     31472      3266  TIP3      OH2           -14.4054762580       -0.0520961092       39.4685790884  TIP3      3074            0.0000000000
     31473      3266  TIP3      H1            -14.6710032936        0.1877812702       40.3722443588  TIP3      3074            0.0000000000
     31474      3266  TIP3      H2            -13.6327724699       -0.6357010101       39.6090835870  TIP3      3074            0.0000000000
     31475      3267  TIP3      OH2            11.7604079220       -9.8129245406       40.1206778607  TIP3      3075            0.0000000000
     31476      3267  TIP3      H1             12.4608472897       -9.8176736550       40.8123609853  TIP3      3075            0.0000000000
     31477      3267  TIP3      H2             12.1113222341      -10.5332734085       39.5772726536  TIP3      3075            0.0000000000
     31478      3268  TIP3      OH2            13.9700003675       -9.0866440545       41.6393455032  TIP3      3076            0.0000000000
     31479      3268  TIP3      H1             14.4185438536       -8.8564845456       42.4890609631  TIP3      3076            0.0000000000
     31480      3268  TIP3      H2             14.3864706481       -8.5054849026       40.9764975869  TIP3      3076            0.0000000000
     31481      3269  TIP3      OH2            17.7613070947      -17.1989743877       41.6594955403  TIP3      3077            0.0000000000
     31482      3269  TIP3      H1             16.8221187343      -17.1356847550       41.8829262556  TIP3      3077            0.0000000000
     31483      3269  TIP3      H2             17.9516517132      -16.3553798828       41.2233911376  TIP3      3077            0.0000000000
     31484      3270  TIP3      OH2            18.8879761288       -2.8694182344       39.9075323938  TIP3      3078            0.0000000000
     31485      3270  TIP3      H1             19.0173113772       -1.9428442815       40.1706377240  TIP3      3078            0.0000000000
     31486      3270  TIP3      H2             19.8073827705       -3.1729999583       39.9951044606  TIP3      3078            0.0000000000
     31487      3271  TIP3      OH2            14.3193980412       -0.0987739226       40.6737261798  TIP3      3079            0.0000000000
     31488      3271  TIP3      H1             14.7298992689       -0.8483429214       40.1885444170  TIP3      3079            0.0000000000
     31489      3271  TIP3      H2             14.3680893065       -0.4073734234       41.5894977458  TIP3      3079            0.0000000000
     31490      3272  TIP3      OH2            15.5082774305       -7.9493264241       39.5325115474  TIP3      3080            0.0000000000
     31491      3272  TIP3      H1             15.4564103660       -8.1368147471       38.5578672747  TIP3      3080            0.0000000000
     31492      3272  TIP3      H2             16.3515999077       -7.4797212046       39.5629348269  TIP3      3080            0.0000000000
     31493      3273  TIP3      OH2            11.0556405851      -14.0553037879       40.0715354260  TIP3      3081            0.0000000000
     31494      3273  TIP3      H1             10.7930113161      -14.0403097754       41.0011214552  TIP3      3081            0.0000000000
     31495      3273  TIP3      H2             10.7791819698      -14.9386869939       39.7780327135  TIP3      3081            0.0000000000
     31496      3274  TIP3      OH2             7.9006523083      -13.6428766026       39.1810417879  TIP3      3082            0.0000000000
     31497      3274  TIP3      H1              7.4508178198      -14.0586676980       39.9515747078  TIP3      3082            0.0000000000
     31498      3274  TIP3      H2              7.1768797555      -13.2416241139       38.6990686273  TIP3      3082            0.0000000000
     31499      3275  TIP3      OH2             2.4088056598      -13.2741541349       41.5725086834  TIP3      3083            0.0000000000
     31500      3275  TIP3      H1              2.9560719573      -12.6051924912       41.1133314277  TIP3      3083            0.0000000000
     31501      3275  TIP3      H2              1.7680492343      -12.6478409650       41.9701825628  TIP3      3083            0.0000000000
     31502      3276  TIP3      OH2             6.5912361067      -10.9087085189       40.6143648004  TIP3      3084            0.0000000000
     31503      3276  TIP3      H1              6.0244721637      -11.2227835601       39.8940650831  TIP3      3084            0.0000000000
     31504      3276  TIP3      H2              7.3922194698      -10.6353122082       40.1448426166  TIP3      3084            0.0000000000
     31505      3277  TIP3      OH2            13.7756292766      -13.4740288736       40.6734181721  TIP3      3085            0.0000000000
     31506      3277  TIP3      H1             12.8181454996      -13.3425036354       40.5955539975  TIP3      3085            0.0000000000
     31507      3277  TIP3      H2             14.0901982402      -12.6510088878       41.1003294795  TIP3      3085            0.0000000000
     31508      3278  TIP3      OH2            14.4951977297      -11.5648948166       42.3499472334  TIP3      3086            0.0000000000
     31509      3278  TIP3      H1             15.3967476758      -11.7074739493       42.6753715223  TIP3      3086            0.0000000000
     31510      3278  TIP3      H2             14.5609568723      -10.7632662824       41.8058068902  TIP3      3086            0.0000000000
     31511      3279  TIP3      OH2            12.0337465213       -4.8408718107       41.5457104099  TIP3      3087            0.0000000000
     31512      3279  TIP3      H1             11.7527811453       -3.9943114414       41.9433741524  TIP3      3087            0.0000000000
     31513      3279  TIP3      H2             11.4573025849       -5.4923393785       41.9683079524  TIP3      3087            0.0000000000
     31514      3280  TIP3      OH2            19.5762585557      -11.3858675425       41.9705402657  TIP3      3088            0.0000000000
     31515      3280  TIP3      H1             18.8912932946      -11.7326744321       41.3495489232  TIP3      3088            0.0000000000
     31516      3280  TIP3      H2             19.5189705734      -10.4360703772       41.7472968434  TIP3      3088            0.0000000000
     31517      3281  TIP3      OH2             3.1676838119       -8.5901487691       40.2299242658  TIP3      3089            0.0000000000
     31518      3281  TIP3      H1              3.7650607992       -7.9841892646       40.7261221853  TIP3      3089            0.0000000000
     31519      3281  TIP3      H2              2.2890857060       -8.3130424395       40.5428278196  TIP3      3089            0.0000000000
     31520      3282  TIP3      OH2            15.1288044176       -4.5942530378       40.3433546754  TIP3      3090            0.0000000000
     31521      3282  TIP3      H1             15.4495492723       -4.9265515512       41.1865285397  TIP3      3090            0.0000000000
     31522      3282  TIP3      H2             14.1753178312       -4.7022421426       40.4614082370  TIP3      3090            0.0000000000
     31523      3283  TIP3      OH2            19.5500414909       -0.1700722672       40.5398343752  TIP3      3091            0.0000000000
     31524      3283  TIP3      H1             20.2938612484        0.4346478640       40.5095423273  TIP3      3091            0.0000000000
     31525      3283  TIP3      H2             18.8615715201        0.4303162088       40.8924477258  TIP3      3091            0.0000000000
     31526      3284  TIP3      OH2             9.3291112743       -3.5389273972       38.8672608059  TIP3      3092            0.0000000000
     31527      3284  TIP3      H1              9.3060107604       -4.2403755829       38.1937176307  TIP3      3092            0.0000000000
     31528      3284  TIP3      H2              8.7341156987       -3.8411271081       39.5865918299  TIP3      3092            0.0000000000
     31529      3285  TIP3      OH2             8.1801913039       -4.0096471149       41.2552664422  TIP3      3093            0.0000000000
     31530      3285  TIP3      H1              8.1790118085       -4.4207522571       42.1364092916  TIP3      3093            0.0000000000
     31531      3285  TIP3      H2              8.1289734566       -3.0663197805       41.5558972132  TIP3      3093            0.0000000000
     31532      3286  TIP3      OH2             4.4191609213       -6.6824944008       41.6651069152  TIP3      3094            0.0000000000
     31533      3286  TIP3      H1              3.8694678423       -6.3626473319       42.3736092235  TIP3      3094            0.0000000000
     31534      3286  TIP3      H2              5.0694632626       -5.9717089092       41.5324451863  TIP3      3094            0.0000000000
     31535      3287  TIP3      OH2            10.4613624556       -2.5668628286       41.2926440057  TIP3      3095            0.0000000000
     31536      3287  TIP3      H1              9.8865822986       -1.9465722781       41.8046347005  TIP3      3095            0.0000000000
     31537      3287  TIP3      H2             11.2010584343       -1.9252354919       41.2199712223  TIP3      3095            0.0000000000
     31538      3288  TIP3      OH2             8.2566433396       -1.2558779993       42.0544959030  TIP3      3096            0.0000000000
     31539      3288  TIP3      H1              8.3016541028       -0.4641298682       41.4553673784  TIP3      3096            0.0000000000
     31540      3288  TIP3      H2              7.9775961243       -0.8381526844       42.8817402881  TIP3      3096            0.0000000000
     31541      3289  TIP3      OH2             6.7712677387      -14.6613975655       41.4026603437  TIP3      3097            0.0000000000
     31542      3289  TIP3      H1              6.6079539129      -13.8024509462       41.7991979369  TIP3      3097            0.0000000000
     31543      3289  TIP3      H2              7.6636715563      -14.8046872213       41.7606934089  TIP3      3097            0.0000000000
     31544      3290  TIP3      OH2             5.1330890160       -4.0677291111       40.6600144421  TIP3      3098            0.0000000000
     31545      3290  TIP3      H1              5.7724275273       -3.4140105013       40.9576622291  TIP3      3098            0.0000000000
     31546      3290  TIP3      H2              5.6475572739       -4.5272167258       39.9752644751  TIP3      3098            0.0000000000
     31547      3291  TIP3      OH2             3.4783266761      -11.3886974507       39.7603736577  TIP3      3099            0.0000000000
     31548      3291  TIP3      H1              3.4421564651      -10.4421283248       40.0201988338  TIP3      3099            0.0000000000
     31549      3291  TIP3      H2              2.5667027547      -11.5955799923       39.5413552941  TIP3      3099            0.0000000000
     31550      3292  TIP3      OH2            11.2593674038       -1.5978113375       38.9346594044  TIP3      3100            0.0000000000
     31551      3292  TIP3      H1             10.5710351713       -2.2531560534       39.1907206296  TIP3      3100            0.0000000000
     31552      3292  TIP3      H2             11.9857349603       -2.1836792647       38.6681538302  TIP3      3100            0.0000000000
     31553      3293  TIP3      OH2            15.8084259493       -1.8574710922       39.0973029405  TIP3      3101            0.0000000000
     31554      3293  TIP3      H1             16.0979873019       -2.6111067918       39.6395358711  TIP3      3101            0.0000000000
     31555      3293  TIP3      H2             16.6012694517       -1.6463718365       38.5816117564  TIP3      3101            0.0000000000
     31556      3294  TIP3      OH2             6.7530518222       -5.9140943266       39.0301777172  TIP3      3102            0.0000000000
     31557      3294  TIP3      H1              6.8353608149       -6.7248705206       39.5504906082  TIP3      3102            0.0000000000
     31558      3294  TIP3      H2              7.4222407202       -6.0617102835       38.3352660169  TIP3      3102            0.0000000000
     31559      3295  TIP3      OH2            12.0767617450       -4.8352044636       38.7696548914  TIP3      3103            0.0000000000
     31560      3295  TIP3      H1             12.0321471083       -4.7228399216       39.7202821586  TIP3      3103            0.0000000000
     31561      3295  TIP3      H2             11.9865016268       -5.8092803858       38.5842886810  TIP3      3103            0.0000000000
     31562      3296  TIP3      OH2             7.9281839905       -7.9298077547       41.3214441872  TIP3      3104            0.0000000000
     31563      3296  TIP3      H1              7.4453053597       -8.4472510779       41.9945601855  TIP3      3104            0.0000000000
     31564      3296  TIP3      H2              8.1783718961       -8.6335310836       40.6833155877  TIP3      3104            0.0000000000
     31565      3297  TIP3      OH2             8.9792402810       -9.7091228857       39.5722040742  TIP3      3105            0.0000000000
     31566      3297  TIP3      H1              8.8627876378       -9.8119179012       38.6108588408  TIP3      3105            0.0000000000
     31567      3297  TIP3      H2              9.9538521513       -9.6527843442       39.6616117826  TIP3      3105            0.0000000000
     31568      3298  TIP3      OH2            18.3209915673       -7.3342015147       39.0806519922  TIP3      3106            0.0000000000
     31569      3298  TIP3      H1             18.1441818007       -7.7395954735       38.2094089314  TIP3      3106            0.0000000000
     31570      3298  TIP3      H2             18.4078542769       -6.3857967473       38.8212596440  TIP3      3106            0.0000000000
     31571      3299  TIP3      OH2             8.8427954528        1.0134469649       40.6879563821  TIP3      3107            0.0000000000
     31572      3299  TIP3      H1              9.8163108145        1.0957756579       40.7297297421  TIP3      3107            0.0000000000
     31573      3299  TIP3      H2              8.6658436176        1.6164576335       39.9511596013  TIP3      3107            0.0000000000
     31574      3300  TIP3      OH2             2.3788018694       -4.4071501578       40.1316939080  TIP3      3108            0.0000000000
     31575      3300  TIP3      H1              3.3345328968       -4.3107469226       40.3414665059  TIP3      3108            0.0000000000
     31576      3300  TIP3      H2              2.4392883930       -5.0763820976       39.4176301531  TIP3      3108            0.0000000000
     31577      3301  TIP3      OH2            19.5540220831       -8.5965525561       41.1461246455  TIP3      3109            0.0000000000
     31578      3301  TIP3      H1             19.0285013143       -8.1870905022       40.4193931180  TIP3      3109            0.0000000000
     31579      3301  TIP3      H2             19.5313469489       -7.9337743390       41.8678652150  TIP3      3109            0.0000000000
     31580      3302  TIP3      OH2            17.8857610863      -11.2882806242       39.7846154315  TIP3      3110            0.0000000000
     31581      3302  TIP3      H1             17.9497078636      -10.6530823715       39.0632009622  TIP3      3110            0.0000000000
     31582      3302  TIP3      H2             17.6970714673      -12.1246550480       39.3070131846  TIP3      3110            0.0000000000
     31583      3303  TIP3      OH2            17.1203220906      -13.8612295098       38.9110435219  TIP3      3111            0.0000000000
     31584      3303  TIP3      H1             17.7163833030      -14.2858216010       39.5519397048  TIP3      3111            0.0000000000
     31585      3303  TIP3      H2             16.2647331020      -14.2735528653       39.1109979729  TIP3      3111            0.0000000000
     31586      3304  TIP3      OH2            19.1915524081      -15.0077377381       40.4677125240  TIP3      3112            0.0000000000
     31587      3304  TIP3      H1             19.5978062756      -15.7410610785       39.9543244742  TIP3      3112            0.0000000000
     31588      3304  TIP3      H2             19.9002971102      -14.3531079981       40.5206786154  TIP3      3112            0.0000000000
     31589      3305  TIP3      OH2             2.7725748594      -16.9519598100       41.5007835391  TIP3      3113            0.0000000000
     31590      3305  TIP3      H1              3.2403775637      -16.2995162303       40.9648806292  TIP3      3113            0.0000000000
     31591      3305  TIP3      H2              2.1825481754      -16.3821049120       41.9900421542  TIP3      3113            0.0000000000
     31592      3306  TIP3      OH2             4.5996652914      -14.9782424342       39.9366130209  TIP3      3114            0.0000000000
     31593      3306  TIP3      H1              5.0886588654      -15.6798595054       39.4690857070  TIP3      3114            0.0000000000
     31594      3306  TIP3      H2              5.2275392251      -14.7544862455       40.6546013417  TIP3      3114            0.0000000000
     31595      3307  TIP3      OH2            11.5024331521        0.2049953261       40.8689551473  TIP3      3115            0.0000000000
     31596      3307  TIP3      H1             12.4018872638        0.5107159774       40.6677144190  TIP3      3115            0.0000000000
     31597      3307  TIP3      H2             11.3087637612       -0.2598470256       40.0302671789  TIP3      3115            0.0000000000
     31598      3308  TIP3      OH2             4.4572690981       -0.0568847368       39.4608443718  TIP3      3116            0.0000000000
     31599      3308  TIP3      H1              4.1874692682        0.1931020900       40.3609251091  TIP3      3116            0.0000000000
     31600      3308  TIP3      H2              5.2261328184       -0.6380866825       39.6091921875  TIP3      3116            0.0000000000
     31601      3309  TIP3      OH2            30.6109978154       -9.8445900357       40.1345237846  TIP3      3117            0.0000000000
     31602      3309  TIP3      H1             31.3294258297       -9.8112369102       40.8021238454  TIP3      3117            0.0000000000
     31603      3309  TIP3      H2             30.9635922731      -10.5339050614       39.5619942518  TIP3      3117            0.0000000000
     31604      3310  TIP3      OH2            32.8040439565       -9.1084521949       41.6805213217  TIP3      3118            0.0000000000
     31605      3310  TIP3      H1             33.2761780518       -8.8350989207       42.4912672897  TIP3      3118            0.0000000000
     31606      3310  TIP3      H2             33.1808412602       -8.5079864132       41.0104446860  TIP3      3118            0.0000000000
     31607      3311  TIP3      OH2            33.1643600962       -0.0975940361       40.6531750901  TIP3      3119            0.0000000000
     31608      3311  TIP3      H1             33.5879332096       -0.8510418053       40.1839191657  TIP3      3119            0.0000000000
     31609      3311  TIP3      H2             33.2106932608       -0.3957784215       41.5743522899  TIP3      3119            0.0000000000
     31610      3312  TIP3      OH2            34.3967636101       -7.9961367153       39.5542176947  TIP3      3120            0.0000000000
     31611      3312  TIP3      H1             34.3319380472       -8.1630394213       38.5829092392  TIP3      3120            0.0000000000
     31612      3312  TIP3      H2             35.1978232535       -7.4676858296       39.5851620099  TIP3      3120            0.0000000000
     31613      3313  TIP3      OH2            29.9270645336      -14.0489630546       40.0608301360  TIP3      3121            0.0000000000
     31614      3313  TIP3      H1             29.6676656769      -14.0234031691       40.9894042265  TIP3      3121            0.0000000000
     31615      3313  TIP3      H2             29.6398544737      -14.9282887875       39.7713242373  TIP3      3121            0.0000000000
     31616      3314  TIP3      OH2            26.7752617252      -13.6175313548       39.1942840140  TIP3      3122            0.0000000000
     31617      3314  TIP3      H1             26.2904919993      -14.0615410006       39.9060557987  TIP3      3122            0.0000000000
     31618      3314  TIP3      H2             26.0800149052      -13.2258660248       38.6388449731  TIP3      3122            0.0000000000
     31619      3315  TIP3      OH2            21.3298492225      -13.2565121426       41.6284756456  TIP3      3123            0.0000000000
     31620      3315  TIP3      H1             21.7692024287      -12.5761237777       41.0735576765  TIP3      3123            0.0000000000
     31621      3315  TIP3      H2             20.6137644312      -12.6629404522       41.9614318846  TIP3      3123            0.0000000000
     31622      3316  TIP3      OH2            25.4451684864      -10.9815147985       40.6381735096  TIP3      3124            0.0000000000
     31623      3316  TIP3      H1             24.8893878749      -11.1992417187       39.8627001624  TIP3      3124            0.0000000000
     31624      3316  TIP3      H2             26.2183290003      -10.6268022287       40.1525601769  TIP3      3124            0.0000000000
     31625      3317  TIP3      OH2            32.6557894502      -13.4608851264       40.6537472282  TIP3      3125            0.0000000000
     31626      3317  TIP3      H1             31.6901003462      -13.3689373095       40.5863202275  TIP3      3125            0.0000000000
     31627      3317  TIP3      H2             32.9166820053      -12.6385911352       41.1076640735  TIP3      3125            0.0000000000
     31628      3318  TIP3      OH2            33.3620857526      -11.5355238507       42.3808766691  TIP3      3126            0.0000000000
     31629      3318  TIP3      H1             34.2715596782      -11.7436600804       42.6200812293  TIP3      3126            0.0000000000
     31630      3318  TIP3      H2             33.4280899925      -10.7627850184       41.7893737616  TIP3      3126            0.0000000000
     31631      3319  TIP3      OH2            30.8826548739       -4.8626232470       41.5859423818  TIP3      3127            0.0000000000
     31632      3319  TIP3      H1             30.5300155571       -4.0131180249       41.8711498613  TIP3      3127            0.0000000000
     31633      3319  TIP3      H2             30.1697032474       -5.4861554928       41.7591425430  TIP3      3127            0.0000000000
     31634      3320  TIP3      OH2            22.0249328904       -8.5912232307       40.2301486535  TIP3      3128            0.0000000000
     31635      3320  TIP3      H1             22.6215301977       -7.9862288623       40.7280238436  TIP3      3128            0.0000000000
     31636      3320  TIP3      H2             21.1455571672       -8.3100408248       40.5380144698  TIP3      3128            0.0000000000
     31637      3321  TIP3      OH2            33.9663337746       -4.6164711795       40.3299639254  TIP3      3129            0.0000000000
     31638      3321  TIP3      H1             34.2780931769       -4.9251786419       41.1791327246  TIP3      3129            0.0000000000
     31639      3321  TIP3      H2             33.0090636076       -4.7076889249       40.4427982226  TIP3      3129            0.0000000000
     31640      3322  TIP3      OH2            28.0925722942       -3.4670616589       38.8296666221  TIP3      3130            0.0000000000
     31641      3322  TIP3      H1             28.2141552394       -4.2417848302       38.2586510353  TIP3      3130            0.0000000000
     31642      3322  TIP3      H2             27.6986630610       -3.8957928374       39.6203820705  TIP3      3130            0.0000000000
     31643      3323  TIP3      OH2            26.9287925692       -3.9745406936       41.2577136299  TIP3      3131            0.0000000000
     31644      3323  TIP3      H1             27.0921696823       -4.4627458063       42.0740216655  TIP3      3131            0.0000000000
     31645      3323  TIP3      H2             26.9944717243       -3.0475642757       41.5424365643  TIP3      3131            0.0000000000
     31646      3324  TIP3      OH2            23.2875778486       -6.6801330571       41.6656417584  TIP3      3132            0.0000000000
     31647      3324  TIP3      H1             22.7309157952       -6.3584104256       42.3695257453  TIP3      3132            0.0000000000
     31648      3324  TIP3      H2             23.9468120205       -5.9678224798       41.5287920215  TIP3      3132            0.0000000000
     31649      3325  TIP3      OH2            29.2965489352       -2.5401108907       41.3378652318  TIP3      3133            0.0000000000
     31650      3325  TIP3      H1             28.7253063871       -1.8701111984       41.7495443781  TIP3      3133            0.0000000000
     31651      3325  TIP3      H2             30.0637273110       -1.9498627055       41.1769754601  TIP3      3133            0.0000000000
     31652      3326  TIP3      OH2            27.1437615231       -1.2347885614       42.1290097810  TIP3      3134            0.0000000000
     31653      3326  TIP3      H1             27.1653464137       -0.5014233344       41.4459131587  TIP3      3134            0.0000000000
     31654      3326  TIP3      H2             26.7676749423       -0.7540982307       42.8658588041  TIP3      3134            0.0000000000
     31655      3327  TIP3      OH2            25.6411465356      -14.6862266698       41.4256520397  TIP3      3135            0.0000000000
     31656      3327  TIP3      H1             25.6801833466      -13.7469057687       41.6023807354  TIP3      3135            0.0000000000
     31657      3327  TIP3      H2             26.5670365124      -14.8410476791       41.7078627994  TIP3      3135            0.0000000000
     31658      3328  TIP3      OH2            23.9860319598       -4.0678352892       40.6662906569  TIP3      3136            0.0000000000
     31659      3328  TIP3      H1             24.6459085362       -3.4363174298       40.9525514436  TIP3      3136            0.0000000000
     31660      3328  TIP3      H2             24.5094285044       -4.5344464209       39.9866031292  TIP3      3136            0.0000000000
     31661      3329  TIP3      OH2            22.3074935826      -11.3963778892       39.8305130183  TIP3      3137            0.0000000000
     31662      3329  TIP3      H1             22.2941857643      -10.4262098734       39.9758267588  TIP3      3137            0.0000000000
     31663      3329  TIP3      H2             21.4289288326      -11.5837292442       39.4890071989  TIP3      3137            0.0000000000
     31664      3330  TIP3      OH2            30.1130471537       -1.6065081960       38.9435626207  TIP3      3138            0.0000000000
     31665      3330  TIP3      H1             29.4247901222       -2.2712349158       39.1816115783  TIP3      3138            0.0000000000
     31666      3330  TIP3      H2             30.8345966980       -2.2038185072       38.6928481360  TIP3      3138            0.0000000000
     31667      3331  TIP3      OH2            34.6595201717       -1.8501443684       39.1727926174  TIP3      3139            0.0000000000
     31668      3331  TIP3      H1             34.9607600451       -2.6285600736       39.6661087837  TIP3      3139            0.0000000000
     31669      3331  TIP3      H2             35.4193438150       -1.6738798259       38.5803504997  TIP3      3139            0.0000000000
     31670      3332  TIP3      OH2            25.5612618634       -5.9437976045       38.9921926540  TIP3      3140            0.0000000000
     31671      3332  TIP3      H1             25.7246948205       -6.7038898587       39.5652705834  TIP3      3140            0.0000000000
     31672      3332  TIP3      H2             26.3056463783       -6.0368157415       38.3651734145  TIP3      3140            0.0000000000
     31673      3333  TIP3      OH2            31.0218875180       -4.8407921615       38.7694525142  TIP3      3141            0.0000000000
     31674      3333  TIP3      H1             30.7246916528       -4.7378965217       39.6816475976  TIP3      3141            0.0000000000
     31675      3333  TIP3      H2             30.7818120105       -5.7874445886       38.6016723188  TIP3      3141            0.0000000000
     31676      3334  TIP3      OH2            26.7653867429       -7.9462173231       41.3159794537  TIP3      3142            0.0000000000
     31677      3334  TIP3      H1             26.3067511510       -8.4459891160       42.0027673668  TIP3      3142            0.0000000000
     31678      3334  TIP3      H2             27.0531766706       -8.6285538400       40.6774070157  TIP3      3142            0.0000000000
     31679      3335  TIP3      OH2            27.8310766846       -9.7210308751       39.5772404799  TIP3      3143            0.0000000000
     31680      3335  TIP3      H1             27.7000459670       -9.8072706591       38.6075626304  TIP3      3143            0.0000000000
     31681      3335  TIP3      H2             28.8068084079       -9.6277868316       39.6597527727  TIP3      3143            0.0000000000
     31682      3336  TIP3      OH2            27.6982180254        0.9979656254       40.6859800046  TIP3      3144            0.0000000000
     31683      3336  TIP3      H1             28.6677801319        1.1056539642       40.7218390427  TIP3      3144            0.0000000000
     31684      3336  TIP3      H2             27.5263287838        1.6111827204       39.9510633045  TIP3      3144            0.0000000000
     31685      3337  TIP3      OH2            21.2329554810       -4.4076642764       40.1303212447  TIP3      3145            0.0000000000
     31686      3337  TIP3      H1             22.1885413268       -4.3133567072       40.3419810229  TIP3      3145            0.0000000000
     31687      3337  TIP3      H2             21.2941677527       -5.0777863593       39.4173993061  TIP3      3145            0.0000000000
     31688      3338  TIP3      OH2            35.9637783129      -13.9127253306       38.8841739239  TIP3      3146            0.0000000000
     31689      3338  TIP3      H1             36.5589079855      -14.2571928261       39.5550668437  TIP3      3146            0.0000000000
     31690      3338  TIP3      H2             35.0969580545      -14.2883763585       39.1131796143  TIP3      3146            0.0000000000
     31691      3339  TIP3      OH2            21.6713149949      -16.9412194916       41.5377583121  TIP3      3147            0.0000000000
     31692      3339  TIP3      H1             22.0760236895      -16.3036618777       40.9425554012  TIP3      3147            0.0000000000
     31693      3339  TIP3      H2             21.0107946583      -16.4074632918       41.9788005223  TIP3      3147            0.0000000000
     31694      3340  TIP3      OH2            23.4287902444      -15.0148628709       39.9958336432  TIP3      3148            0.0000000000
     31695      3340  TIP3      H1             23.9089914788      -15.6591274444       39.4319388372  TIP3      3148            0.0000000000
     31696      3340  TIP3      H2             24.1275680050      -14.7553628420       40.6009998955  TIP3      3148            0.0000000000
     31697      3341  TIP3      OH2            30.3497197764        0.2052994037       40.8796557894  TIP3      3149            0.0000000000
     31698      3341  TIP3      H1             31.2489527551        0.5224413456       40.6673329051  TIP3      3149            0.0000000000
     31699      3341  TIP3      H2             30.1659313551       -0.2566532099       40.0288132000  TIP3      3149            0.0000000000
     31700      3342  TIP3      OH2            23.3445247407        0.0008416281       39.5098668920  TIP3      3150            0.0000000000
     31701      3342  TIP3      H1             23.0615264879        0.0094398341       40.4333431878  TIP3      3150            0.0000000000
     31702      3342  TIP3      H2             24.0759113625       -0.6592033383       39.5592920019  TIP3      3150            0.0000000000
     31703      3343  TIP3      OH2           -25.9627194498        9.0135611993       40.1308386823  TIP3      3151            0.0000000000
     31704      3343  TIP3      H1            -25.2529263038        9.0458463498       40.8086233092  TIP3      3151            0.0000000000
     31705      3343  TIP3      H2            -25.5996611173        8.3203436632       39.5678356270  TIP3      3151            0.0000000000
     31706      3344  TIP3      OH2           -23.7153173748        9.7425281924       41.6356406790  TIP3      3152            0.0000000000
     31707      3344  TIP3      H1            -23.3021054647       10.0135326714       42.4887188825  TIP3      3152            0.0000000000
     31708      3344  TIP3      H2            -23.3490221909       10.3633548789       40.9784204948  TIP3      3152            0.0000000000
     31709      3345  TIP3      OH2           -19.9712681987        1.6547399490       41.6580891884  TIP3      3153            0.0000000000
     31710      3345  TIP3      H1            -20.9082742227        1.7408378182       41.8680038553  TIP3      3153            0.0000000000
     31711      3345  TIP3      H2            -19.7582233364        2.4937037269       41.2245245811  TIP3      3153            0.0000000000
     31712      3346  TIP3      OH2           -18.8178863408       15.9984535952       39.9108051545  TIP3      3154            0.0000000000
     31713      3346  TIP3      H1            -18.6807884671       16.9281125614       40.1672985168  TIP3      3154            0.0000000000
     31714      3346  TIP3      H2            -17.8967785176       15.6988905998       39.9947947053  TIP3      3154            0.0000000000
     31715      3347  TIP3      OH2           -23.3948565540       18.7563965501       40.6737115672  TIP3      3155            0.0000000000
     31716      3347  TIP3      H1            -22.9806215054       18.0084676980       40.1887591556  TIP3      3155            0.0000000000
     31717      3347  TIP3      H2            -23.3416054896       18.4494233143       41.5898875531  TIP3      3155            0.0000000000
     31718      3348  TIP3      OH2           -22.1921849168       10.8961489231       39.5323556818  TIP3      3156            0.0000000000
     31719      3348  TIP3      H1            -22.2508729136       10.7182520865       38.5561366178  TIP3      3156            0.0000000000
     31720      3348  TIP3      H2            -21.3546271638       11.3770283892       39.5604992896  TIP3      3156            0.0000000000
     31721      3349  TIP3      OH2           -26.6536414713        4.7981372840       40.0708396827  TIP3      3157            0.0000000000
     31722      3349  TIP3      H1            -26.9268275093        4.8200508926       40.9964256838  TIP3      3157            0.0000000000
     31723      3349  TIP3      H2            -26.9349332649        3.9163772873       39.7781747626  TIP3      3157            0.0000000000
     31724      3350  TIP3      OH2           -29.7909865409        5.2090583941       39.1815671366  TIP3      3158            0.0000000000
     31725      3350  TIP3      H1            -30.2663676497        4.8091135257       39.9404787702  TIP3      3158            0.0000000000
     31726      3350  TIP3      H2            -30.5076019050        5.6240264988       38.6775739436  TIP3      3158            0.0000000000
     31727      3351  TIP3      OH2           -35.0960383997        5.7453601383       41.6028998971  TIP3      3159            0.0000000000
     31728      3351  TIP3      H1            -34.6897347082        6.4056736276       41.0163171766  TIP3      3159            0.0000000000
     31729      3351  TIP3      H2            -35.9342909641        6.1283771244       41.9167589728  TIP3      3159            0.0000000000
     31730      3352  TIP3      OH2           -31.1213023321        7.9461420838       40.6183004680  TIP3      3160            0.0000000000
     31731      3352  TIP3      H1            -31.6764219759        7.6364161566       39.8774727949  TIP3      3160            0.0000000000
     31732      3352  TIP3      H2            -30.3244764060        8.2181193938       40.1372785934  TIP3      3160            0.0000000000
     31733      3353  TIP3      OH2           -23.9368160272        5.3813088524       40.6736624017  TIP3      3161            0.0000000000
     31734      3353  TIP3      H1            -24.8954373058        5.5118026590       40.5955282616  TIP3      3161            0.0000000000
     31735      3353  TIP3      H2            -23.6216472110        6.2045393203       41.1007093505  TIP3      3161            0.0000000000
     31736      3354  TIP3      OH2           -23.2084681804        7.2862336883       42.3472532194  TIP3      3162            0.0000000000
     31737      3354  TIP3      H1            -22.3075429150        7.1499174648       42.6756391483  TIP3      3162            0.0000000000
     31738      3354  TIP3      H2            -23.1485364099        8.0934447596       41.8069506665  TIP3      3162            0.0000000000
     31739      3355  TIP3      OH2           -25.6819856161       14.0061203356       41.5477183768  TIP3      3163            0.0000000000
     31740      3355  TIP3      H1            -26.0370484488       14.8393254280       41.8828939929  TIP3      3163            0.0000000000
     31741      3355  TIP3      H2            -26.3895396885       13.3884902122       41.7662096307  TIP3      3163            0.0000000000
     31742      3356  TIP3      OH2           -18.1538094981        7.4795947054       41.9734353764  TIP3      3164            0.0000000000
     31743      3356  TIP3      H1            -18.8268495476        7.1108635324       41.3514947041  TIP3      3164            0.0000000000
     31744      3356  TIP3      H2            -18.2187805514        8.4243383929       41.7424752601  TIP3      3164            0.0000000000
     31745      3357  TIP3      OH2           -34.6011362344       10.2303534216       40.2804663248  TIP3      3165            0.0000000000
     31746      3357  TIP3      H1            -33.9521217726       10.8460115660       40.7204696710  TIP3      3165            0.0000000000
     31747      3357  TIP3      H2            -35.4394984540       10.5967148616       40.5573481344  TIP3      3165            0.0000000000
     31748      3358  TIP3      OH2           -22.5736991644       14.2625354683       40.3435422062  TIP3      3166            0.0000000000
     31749      3358  TIP3      H1            -22.2831276034       13.9237814141       41.1925368685  TIP3      3166            0.0000000000
     31750      3358  TIP3      H2            -23.5397565464       14.1550487857       40.4427130563  TIP3      3166            0.0000000000
     31751      3359  TIP3      OH2           -18.1631321046       18.6842638345       40.5473712957  TIP3      3167            0.0000000000
     31752      3359  TIP3      H1            -17.3965869076       19.2844203525       40.4984860693  TIP3      3167            0.0000000000
     31753      3359  TIP3      H2            -18.8379125214       19.3039272298       40.8886695282  TIP3      3167            0.0000000000
     31754      3360  TIP3      OH2           -28.4768048544       15.3831838372       38.8096454773  TIP3      3168            0.0000000000
     31755      3360  TIP3      H1            -28.3542154360       14.6000127649       38.2533476845  TIP3      3168            0.0000000000
     31756      3360  TIP3      H2            -28.8584820151       14.9746421404       39.6229095127  TIP3      3168            0.0000000000
     31757      3361  TIP3      OH2           -29.6651603327       14.8754022605       41.2539692014  TIP3      3169            0.0000000000
     31758      3361  TIP3      H1            -29.4590693278       14.4238180130       42.0845568869  TIP3      3169            0.0000000000
     31759      3361  TIP3      H2            -29.5587057406       15.8010470714       41.5612107455  TIP3      3169            0.0000000000
     31760      3362  TIP3      OH2           -33.2819368961       12.1618444797       41.6582496657  TIP3      3170            0.0000000000
     31761      3362  TIP3      H1            -33.8358996764       12.5024183681       42.3581595329  TIP3      3170            0.0000000000
     31762      3362  TIP3      H2            -32.6281438289       12.8835825057       41.5279716821  TIP3      3170            0.0000000000
     31763      3363  TIP3      OH2           -27.2703068032       16.3249570432       41.2945656067  TIP3      3171            0.0000000000
     31764      3363  TIP3      H1            -27.8398022027       16.9255514471       41.8178619468  TIP3      3171            0.0000000000
     31765      3363  TIP3      H2            -26.5070190736       16.9264215558       41.2181403833  TIP3      3171            0.0000000000
     31766      3364  TIP3      OH2           -29.4794120638       17.6148072373       42.0498249471  TIP3      3172            0.0000000000
     31767      3364  TIP3      H1            -29.4065699624       18.3951473324       41.4463083435  TIP3      3172            0.0000000000
     31768      3364  TIP3      H2            -29.7306625821       18.0208181257       42.8868704699  TIP3      3172            0.0000000000
     31769      3365  TIP3      OH2           -30.9422238906        4.2017706369       41.3976058155  TIP3      3173            0.0000000000
     31770      3365  TIP3      H1            -31.0945778676        5.0660436007       41.7931059045  TIP3      3173            0.0000000000
     31771      3365  TIP3      H2            -30.0492225939        4.0507856032       41.7552406842  TIP3      3173            0.0000000000
     31772      3366  TIP3      OH2           -32.6150977402       14.8093519815       40.6359354810  TIP3      3174            0.0000000000
     31773      3366  TIP3      H1            -31.9516695017       15.4335402800       40.9669021580  TIP3      3174            0.0000000000
     31774      3366  TIP3      H2            -32.0536910018       14.3289720149       39.9949298738  TIP3      3174            0.0000000000
     31775      3367  TIP3      OH2           -34.2654364870        7.4673100461       39.7564068818  TIP3      3175            0.0000000000
     31776      3367  TIP3      H1            -34.2549520701        8.4208582811       39.9625192616  TIP3      3175            0.0000000000
     31777      3367  TIP3      H2            -35.1575588530        7.2518012236       39.4685765658  TIP3      3175            0.0000000000
     31778      3368  TIP3      OH2           -26.4539431284       17.2588603282       38.9284605498  TIP3      3176            0.0000000000
     31779      3368  TIP3      H1            -27.1361113537       16.5965155691       39.2070057982  TIP3      3176            0.0000000000
     31780      3368  TIP3      H2            -25.7365591844       16.6529015437       38.6873380378  TIP3      3176            0.0000000000
     31781      3369  TIP3      OH2           -21.9051492169       16.9970398102       39.1017736442  TIP3      3177            0.0000000000
     31782      3369  TIP3      H1            -21.6130096337       16.2433865478       39.6407166445  TIP3      3177            0.0000000000
     31783      3369  TIP3      H2            -21.1131727290       17.2097404595       38.5828789326  TIP3      3177            0.0000000000
     31784      3370  TIP3      OH2           -31.0075717572       12.9114997579       38.9904158648  TIP3      3178            0.0000000000
     31785      3370  TIP3      H1            -30.8461764725       12.1516417090       39.5641189065  TIP3      3178            0.0000000000
     31786      3370  TIP3      H2            -30.2617436271       12.8202791188       38.3653895588  TIP3      3178            0.0000000000
     31787      3371  TIP3      OH2           -25.5371622489       14.0157231667       38.7821794235  TIP3      3179            0.0000000000
     31788      3371  TIP3      H1            -25.8329488888       14.1167843441       39.6993758887  TIP3      3179            0.0000000000
     31789      3371  TIP3      H2            -25.7795168393       13.0718543913       38.6045942709  TIP3      3179            0.0000000000
     31790      3372  TIP3      OH2           -29.8189604953       10.9042118273       41.3235331058  TIP3      3180            0.0000000000
     31791      3372  TIP3      H1            -30.2703000021       10.3851584852       42.0044046169  TIP3      3180            0.0000000000
     31792      3372  TIP3      H2            -29.5074452232       10.2315121073       40.6819847175  TIP3      3180            0.0000000000
     31793      3373  TIP3      OH2           -28.7409446610        9.1383215049       39.5788167941  TIP3      3181            0.0000000000
     31794      3373  TIP3      H1            -28.8690259520        9.0513130296       38.6089983314  TIP3      3181            0.0000000000
     31795      3373  TIP3      H2            -27.7646082493        9.2289688719       39.6622168990  TIP3      3181            0.0000000000
     31796      3374  TIP3      OH2           -19.3897234255       11.5217239513       39.0803653874  TIP3      3182            0.0000000000
     31797      3374  TIP3      H1            -19.5685127470       11.1162137427       38.2097636825  TIP3      3182            0.0000000000
     31798      3374  TIP3      H2            -19.3044527498       12.4703318478       38.8216019491  TIP3      3182            0.0000000000
     31799      3375  TIP3      OH2           -28.8684123974       19.8674367223       40.6777685540  TIP3      3183            0.0000000000
     31800      3375  TIP3      H1            -27.8940229588       19.9448566350       40.7445386201  TIP3      3183            0.0000000000
     31801      3375  TIP3      H2            -29.0416150018       20.4834042229       39.9629861280  TIP3      3183            0.0000000000
     31802      3376  TIP3      OH2           -35.3062666784       14.4523513525       40.1557818596  TIP3      3184            0.0000000000
     31803      3376  TIP3      H1            -34.3533458021       14.5713571157       40.3552240347  TIP3      3184            0.0000000000
     31804      3376  TIP3      H2            -35.2487645939       13.7867552476       39.4529128992  TIP3      3184            0.0000000000
     31805      3377  TIP3      OH2           -18.1420139377       10.2619737741       41.1387055491  TIP3      3185            0.0000000000
     31806      3377  TIP3      H1            -18.6960236970       10.6611981772       40.4238357216  TIP3      3185            0.0000000000
     31807      3377  TIP3      H2            -18.2019563924       10.9211644427       41.8679133665  TIP3      3185            0.0000000000
     31808      3378  TIP3      OH2           -19.8301451164        7.5669237310       39.7816921296  TIP3      3186            0.0000000000
     31809      3378  TIP3      H1            -19.7609014497        8.2013081611       39.0614508560  TIP3      3186            0.0000000000
     31810      3378  TIP3      H2            -20.0151418704        6.7296280295       39.3055465849  TIP3      3186            0.0000000000
     31811      3379  TIP3      OH2           -20.5930567046        4.9950989896       38.9103845455  TIP3      3187            0.0000000000
     31812      3379  TIP3      H1            -19.9969703846        4.5681234151       39.5506952271  TIP3      3187            0.0000000000
     31813      3379  TIP3      H2            -21.4476754822        4.5821827979       39.1111044120  TIP3      3187            0.0000000000
     31814      3380  TIP3      OH2           -18.5311388439        3.8561662043       40.4489443700  TIP3      3188            0.0000000000
     31815      3380  TIP3      H1            -18.1003972299        3.1185089955       39.9653312762  TIP3      3188            0.0000000000
     31816      3380  TIP3      H2            -17.8076981111        4.4991849315       40.5390287869  TIP3      3188            0.0000000000
     31817      3381  TIP3      OH2           -34.9941765463        1.8915121500       41.4422262097  TIP3      3189            0.0000000000
     31818      3381  TIP3      H1            -34.4455876172        2.5628210744       41.0004209251  TIP3      3189            0.0000000000
     31819      3381  TIP3      H2            -35.5517923735        2.4308184674       42.0096881595  TIP3      3189            0.0000000000
     31820      3382  TIP3      OH2           -33.1286362610        3.8372543224       39.9763143488  TIP3      3190            0.0000000000
     31821      3382  TIP3      H1            -32.6160126812        3.1967802135       39.4532141634  TIP3      3190            0.0000000000
     31822      3382  TIP3      H2            -32.4822222571        4.0901835444       40.6647235664  TIP3      3190            0.0000000000
     31823      3383  TIP3      OH2           -26.2131132406       19.0978133507       40.8648043993  TIP3      3191            0.0000000000
     31824      3383  TIP3      H1            -25.3043860247       19.3729711293       40.6644242406  TIP3      3191            0.0000000000
     31825      3383  TIP3      H2            -26.4038153599       18.5866586895       40.0468630691  TIP3      3191            0.0000000000
     31826      3384  TIP3      OH2           -33.2819538764       18.8069283241       39.4422505402  TIP3      3192            0.0000000000
     31827      3384  TIP3      H1            -33.5484022768       19.0283660608       40.3548040933  TIP3      3192            0.0000000000
     31828      3384  TIP3      H2            -32.4890456339       18.2493125512       39.6002860241  TIP3      3192            0.0000000000
     31829      3385  TIP3      OH2            -7.1451098381        9.0167091456       40.1312195751  TIP3      3193            0.0000000000
     31830      3385  TIP3      H1             -6.3987818161        9.2421733867       40.7325266073  TIP3      3193            0.0000000000
     31831      3385  TIP3      H2             -6.7579783510        8.4350604945       39.4574765951  TIP3      3193            0.0000000000
     31832      3386  TIP3      OH2            -4.8659806023        9.7022489271       41.6229552256  TIP3      3194            0.0000000000
     31833      3386  TIP3      H1             -4.4565261318       10.0163981632       42.4773109247  TIP3      3194            0.0000000000
     31834      3386  TIP3      H2             -4.4959816420       10.3623310345       40.9924884309  TIP3      3194            0.0000000000
     31835      3387  TIP3      OH2            -1.1003704478        1.6520550675       41.6777143037  TIP3      3195            0.0000000000
     31836      3387  TIP3      H1             -2.0429893129        1.7340795377       41.8731491341  TIP3      3195            0.0000000000
     31837      3387  TIP3      H2             -0.9015060789        2.4888064067       41.2275328143  TIP3      3195            0.0000000000
     31838      3388  TIP3      OH2             0.0384655953       15.9983970152       39.9105668902  TIP3      3196            0.0000000000
     31839      3388  TIP3      H1              0.1753948030       16.9281213136       40.1671719071  TIP3      3196            0.0000000000
     31840      3388  TIP3      H2              0.9595179202       15.6986502377       39.9941200519  TIP3      3196            0.0000000000
     31841      3389  TIP3      OH2            -4.5389775148       18.7564048517       40.6735641992  TIP3      3197            0.0000000000
     31842      3389  TIP3      H1             -4.1245985398       18.0084791955       40.1886847623  TIP3      3197            0.0000000000
     31843      3389  TIP3      H2             -4.4854223795       18.4496067197       41.5897759226  TIP3      3197            0.0000000000
     31844      3390  TIP3      OH2            -3.3380118108       10.8723281623       39.5366902526  TIP3      3198            0.0000000000
     31845      3390  TIP3      H1             -3.3866038025       10.7348162150       38.5527598875  TIP3      3198            0.0000000000
     31846      3390  TIP3      H2             -2.5095517136       11.3790748239       39.5637695126  TIP3      3198            0.0000000000
     31847      3391  TIP3      OH2            -7.7573403152        4.8226010433       40.1082406447  TIP3      3199            0.0000000000
     31848      3391  TIP3      H1             -8.1151742774        4.7910651762       40.9984319626  TIP3      3199            0.0000000000
     31849      3391  TIP3      H2             -8.0573798217        3.9501777513       39.7696331651  TIP3      3199            0.0000000000
     31850      3392  TIP3      OH2           -10.9291702096        5.2632762954       39.2280157332  TIP3      3200            0.0000000000
     31851      3392  TIP3      H1            -11.4174871367        4.7855287370       39.9342251791  TIP3      3200            0.0000000000
     31852      3392  TIP3      H2            -11.6410270533        5.6051978090       38.6643224164  TIP3      3200            0.0000000000
     31853      3393  TIP3      OH2           -16.4342454267        5.5873437456       41.5945531517  TIP3      3201            0.0000000000
     31854      3393  TIP3      H1            -15.9192087836        6.2437653445       41.0914396475  TIP3      3201            0.0000000000
     31855      3393  TIP3      H2            -17.1049709466        6.1962533153       41.9660521673  TIP3      3201            0.0000000000
     31856      3394  TIP3      OH2           -12.3367697686        8.0186833727       40.6101801369  TIP3      3202            0.0000000000
     31857      3394  TIP3      H1            -12.7942081670        7.5973679358       39.8510690036  TIP3      3202            0.0000000000
     31858      3394  TIP3      H2            -11.4931258193        8.2106268513       40.1502024371  TIP3      3202            0.0000000000
     31859      3395  TIP3      OH2            -5.0836611829        5.3694287720       40.6766822884  TIP3      3203            0.0000000000
     31860      3395  TIP3      H1             -6.0489281811        5.4204360698       40.5608892231  TIP3      3203            0.0000000000
     31861      3395  TIP3      H2             -4.6756851456        6.1562600791       41.0915439216  TIP3      3203            0.0000000000
     31862      3396  TIP3      OH2            -4.3128507072        7.2860275288       42.3362327682  TIP3      3204            0.0000000000
     31863      3396  TIP3      H1             -3.4239878871        7.1268338292       42.7135427035  TIP3      3204            0.0000000000
     31864      3396  TIP3      H2             -4.1674922816        8.1216974685       41.8508693297  TIP3      3204            0.0000000000
     31865      3397  TIP3      OH2            -6.8279160849       13.9976512990       41.5462599021  TIP3      3205            0.0000000000
     31866      3397  TIP3      H1             -7.1784092881       14.8349946288       41.8809832348  TIP3      3205            0.0000000000
     31867      3397  TIP3      H2             -7.5382342804       13.3856898743       41.7677219497  TIP3      3205            0.0000000000
     31868      3398  TIP3      OH2             0.6954407590        7.4782860415       41.9758626483  TIP3      3206            0.0000000000
     31869      3398  TIP3      H1              0.0337860209        7.1164411376       41.3406279641  TIP3      3206            0.0000000000
     31870      3398  TIP3      H2              0.6675188601        8.4234484364       41.7406129165  TIP3      3206            0.0000000000
     31871      3399  TIP3      OH2           -15.6350847663       10.2024320201       40.3483608444  TIP3      3207            0.0000000000
     31872      3399  TIP3      H1            -15.1177616019       10.9721917478       40.6778469775  TIP3      3207            0.0000000000
     31873      3399  TIP3      H2            -16.5541985839       10.5317818053       40.5033099139  TIP3      3207            0.0000000000
     31874      3400  TIP3      OH2            -3.7185779406       14.2626165600       40.3440523864  TIP3      3208            0.0000000000
     31875      3400  TIP3      H1             -3.4271605414       13.9246780075       41.1925853163  TIP3      3208            0.0000000000
     31876      3400  TIP3      H2             -4.6845071880       14.1558458194       40.4429002579  TIP3      3208            0.0000000000
     31877      3401  TIP3      OH2             0.6925698516       18.6853031783       40.5468374790  TIP3      3209            0.0000000000
     31878      3401  TIP3      H1              1.4596844700       19.2844392432       40.4989952131  TIP3      3209            0.0000000000
     31879      3401  TIP3      H2              0.0178878687       19.3040788692       40.8887865560  TIP3      3209            0.0000000000
     31880      3402  TIP3      OH2            -9.6191536844       15.3771697142       38.8112226289  TIP3      3210            0.0000000000
     31881      3402  TIP3      H1             -9.4970764688       14.5963745418       38.2542063737  TIP3      3210            0.0000000000
     31882      3402  TIP3      H2            -10.0030385198       14.9734667819       39.6249659747  TIP3      3210            0.0000000000
     31883      3403  TIP3      OH2           -10.7963671680       14.8752350476       41.2547256550  TIP3      3211            0.0000000000
     31884      3403  TIP3      H1            -10.6009462810       14.4250080751       42.0868236092  TIP3      3211            0.0000000000
     31885      3403  TIP3      H2            -10.7019554353       15.8017103619       41.5620981846  TIP3      3211            0.0000000000
     31886      3404  TIP3      OH2           -14.4177109352       12.1396228006       41.6746078036  TIP3      3212            0.0000000000
     31887      3404  TIP3      H1            -14.9838420369       12.5107944070       42.3553091406  TIP3      3212            0.0000000000
     31888      3404  TIP3      H2            -13.7724778636       12.8689821366       41.5264087859  TIP3      3212            0.0000000000
     31889      3405  TIP3      OH2            -8.4160843470       16.3202568698       41.2950916710  TIP3      3213            0.0000000000
     31890      3405  TIP3      H1             -8.9840163566       16.9268789323       41.8150271764  TIP3      3213            0.0000000000
     31891      3405  TIP3      H2             -7.6534109979       16.9255781104       41.2164014563  TIP3      3213            0.0000000000
     31892      3406  TIP3      OH2           -10.6185304191       17.6116717629       42.0594823455  TIP3      3214            0.0000000000
     31893      3406  TIP3      H1            -10.5509568333       18.3907788096       41.4503221524  TIP3      3214            0.0000000000
     31894      3406  TIP3      H2            -10.8772839391       18.0226450945       42.8901244782  TIP3      3214            0.0000000000
     31895      3407  TIP3      OH2           -12.0819754093        4.2093829180       41.3906510885  TIP3      3215            0.0000000000
     31896      3407  TIP3      H1            -12.2349342318        5.0562719008       41.8080403092  TIP3      3215            0.0000000000
     31897      3407  TIP3      H2            -11.1941303075        4.0359935031       41.7535064269  TIP3      3215            0.0000000000
     31898      3408  TIP3      OH2           -13.7380206426       14.7733941227       40.6561124853  TIP3      3216            0.0000000000
     31899      3408  TIP3      H1            -13.0847395415       15.4177193085       40.9615094542  TIP3      3216            0.0000000000
     31900      3408  TIP3      H2            -13.1925837468       14.3383233512       39.9765018037  TIP3      3216            0.0000000000
     31901      3409  TIP3      OH2           -15.3925442763        7.4996906856       39.8547118039  TIP3      3217            0.0000000000
     31902      3409  TIP3      H1            -15.4700298200        8.4631913271       39.9282870148  TIP3      3217            0.0000000000
     31903      3409  TIP3      H2            -16.2527578534        7.2380629228       39.4953555239  TIP3      3217            0.0000000000
     31904      3410  TIP3      OH2            -7.5977947837       17.2593552615       38.9288905368  TIP3      3218            0.0000000000
     31905      3410  TIP3      H1             -8.2804555386       16.5968842761       39.2063237961  TIP3      3218            0.0000000000
     31906      3410  TIP3      H2             -6.8811831693       16.6529722461       38.6860659956  TIP3      3218            0.0000000000
     31907      3411  TIP3      OH2            -3.0491381473       16.9973907028       39.1018643646  TIP3      3219            0.0000000000
     31908      3411  TIP3      H1             -2.7573551855       16.2434942556       39.6405278199  TIP3      3219            0.0000000000
     31909      3411  TIP3      H2             -2.2571827913       17.2099101873       38.5829805791  TIP3      3219            0.0000000000
     31910      3412  TIP3      OH2           -12.1599487318       12.8941725797       38.9943204707  TIP3      3220            0.0000000000
     31911      3412  TIP3      H1            -11.9732843267       12.1487273137       39.5742977881  TIP3      3220            0.0000000000
     31912      3412  TIP3      H2            -11.4072467182       12.8291514967       38.3672790185  TIP3      3220            0.0000000000
     31913      3413  TIP3      OH2            -6.6807148488       14.0142423411       38.7814520543  TIP3      3221            0.0000000000
     31914      3413  TIP3      H1             -6.9778753259       14.1175839922       39.6990254839  TIP3      3221            0.0000000000
     31915      3413  TIP3      H2             -6.9247380694       13.0718512595       38.6046767535  TIP3      3221            0.0000000000
     31916      3414  TIP3      OH2           -10.9733370364       10.8915351580       41.3049178881  TIP3      3222            0.0000000000
     31917      3414  TIP3      H1            -11.3481900594       10.3877310856       42.0341271563  TIP3      3222            0.0000000000
     31918      3414  TIP3      H2            -10.6435661719       10.2270837738       40.6698532737  TIP3      3222            0.0000000000
     31919      3415  TIP3      OH2            -9.8763824222        9.1021358099       39.5859979558  TIP3      3223            0.0000000000
     31920      3415  TIP3      H1            -10.0293021941        9.0609491155       38.6106952576  TIP3      3223            0.0000000000
     31921      3415  TIP3      H2             -8.9100426842        9.2560606658       39.6361676156  TIP3      3223            0.0000000000
     31922      3416  TIP3      OH2            -0.5349954676       11.5227755932       39.0804657991  TIP3      3224            0.0000000000
     31923      3416  TIP3      H1             -0.7120135477       11.1159097535       38.2098200409  TIP3      3224            0.0000000000
     31924      3416  TIP3      H2             -0.4475136226       12.4707105712       38.8206856201  TIP3      3224            0.0000000000
     31925      3417  TIP3      OH2           -10.0131674281       19.8693338689       40.6885444081  TIP3      3225            0.0000000000
     31926      3417  TIP3      H1             -9.0397854804       19.9515538833       40.7306186823  TIP3      3225            0.0000000000
     31927      3417  TIP3      H2            -10.1909830523       20.4714987683       39.9510708988  TIP3      3225            0.0000000000
     31928      3418  TIP3      OH2           -16.4821768267       14.4555004828       40.1318219549  TIP3      3226            0.0000000000
     31929      3418  TIP3      H1            -15.5254687420       14.5649002288       40.3372085721  TIP3      3226            0.0000000000
     31930      3418  TIP3      H2            -16.4230198465       13.7979003179       39.4078418737  TIP3      3226            0.0000000000
     31931      3419  TIP3      OH2             0.7037451848       10.2644179819       41.1450474429  TIP3      3227            0.0000000000
     31932      3419  TIP3      H1              0.1709924006       10.6697272313       40.4205730686  TIP3      3227            0.0000000000
     31933      3419  TIP3      H2              0.6745565089       10.9246274973       41.8691568719  TIP3      3227            0.0000000000
     31934      3420  TIP3      OH2            -1.0209700968        7.5786346642       39.7832472277  TIP3      3228            0.0000000000
     31935      3420  TIP3      H1             -0.8899820035        8.2007236667       39.0606638929  TIP3      3228            0.0000000000
     31936      3420  TIP3      H2             -1.1409352140        6.7305774965       39.3040523214  TIP3      3228            0.0000000000
     31937      3421  TIP3      OH2            -1.7532088052        5.0168213214       38.9317162196  TIP3      3229            0.0000000000
     31938      3421  TIP3      H1             -1.1383234044        4.5721062662       39.5432753505  TIP3      3229            0.0000000000
     31939      3421  TIP3      H2             -2.5859993751        4.5580363497       39.1033192083  TIP3      3229            0.0000000000
     31940      3422  TIP3      OH2             0.3243579430        3.8565538350       40.4471635183  TIP3      3230            0.0000000000
     31941      3422  TIP3      H1              0.7561873989        3.1185805772       39.9649338227  TIP3      3230            0.0000000000
     31942      3422  TIP3      H2              1.0511665319        4.4972301490       40.5396834144  TIP3      3230            0.0000000000
     31943      3423  TIP3      OH2           -16.0867775307        1.9010322334       41.4983645525  TIP3      3231            0.0000000000
     31944      3423  TIP3      H1            -15.6128738609        2.5549081178       40.9724421246  TIP3      3231            0.0000000000
     31945      3423  TIP3      H2            -16.6733793948        2.4690779086       41.9937796346  TIP3      3231            0.0000000000
     31946      3424  TIP3      OH2           -14.2700355230        3.8677053345       39.9720739684  TIP3      3232            0.0000000000
     31947      3424  TIP3      H1            -13.7776793047        3.2035749474       39.4549835367  TIP3      3232            0.0000000000
     31948      3424  TIP3      H2            -13.6174245655        4.0818894529       40.6672335645  TIP3      3232            0.0000000000
     31949      3425  TIP3      OH2            -7.3560057058       19.0986028702       40.8636267464  TIP3      3233            0.0000000000
     31950      3425  TIP3      H1             -6.4475259788       19.3724894054       40.6643466115  TIP3      3233            0.0000000000
     31951      3425  TIP3      H2             -7.5478202323       18.5861768998       40.0470113052  TIP3      3233            0.0000000000
     31952      3426  TIP3      OH2           -14.4036995636       18.8023228957       39.4615000497  TIP3      3234            0.0000000000
     31953      3426  TIP3      H1            -14.6692521025       19.0482981226       40.3628964841  TIP3      3234            0.0000000000
     31954      3426  TIP3      H2            -13.6316317513       18.2195502055       39.6082962254  TIP3      3234            0.0000000000
     31955      3427  TIP3      OH2            11.7302088817        8.9742150179       40.1616466487  TIP3      3235            0.0000000000
     31956      3427  TIP3      H1             12.4709045651        9.0556046336       40.8005133014  TIP3      3235            0.0000000000
     31957      3427  TIP3      H2             12.1193622456        8.3344027144       39.5538707840  TIP3      3235            0.0000000000
     31958      3428  TIP3      OH2            13.9870171120        9.7659662236       41.6624510491  TIP3      3236            0.0000000000
     31959      3428  TIP3      H1             14.4379199439       10.0088806643       42.4924364515  TIP3      3236            0.0000000000
     31960      3428  TIP3      H2             14.3617139883       10.3389665514       40.9613452692  TIP3      3236            0.0000000000
     31961      3429  TIP3      OH2            17.7754767339        1.6569943332       41.6772725313  TIP3      3237            0.0000000000
     31962      3429  TIP3      H1             16.8311022610        1.7156487649       41.8737001681  TIP3      3237            0.0000000000
     31963      3429  TIP3      H2             17.9384267655        2.4998558196       41.2287842039  TIP3      3237            0.0000000000
     31964      3430  TIP3      OH2            18.9068022937       16.0100600073       39.9172627792  TIP3      3238            0.0000000000
     31965      3430  TIP3      H1             19.0385738519       16.9427681411       40.1649818261  TIP3      3238            0.0000000000
     31966      3430  TIP3      H2             19.8235858980       15.7020661206       39.9963858608  TIP3      3238            0.0000000000
     31967      3431  TIP3      OH2            14.3175131886       18.7515134047       40.6716261896  TIP3      3239            0.0000000000
     31968      3431  TIP3      H1             14.7291167869       17.9969516959       40.1877496565  TIP3      3239            0.0000000000
     31969      3431  TIP3      H2             14.3723870156       18.4488911311       41.5884194335  TIP3      3239            0.0000000000
     31970      3432  TIP3      OH2            15.8908774003       10.5361815023       39.6554030403  TIP3      3240            0.0000000000
     31971      3432  TIP3      H1             15.4550220226       10.6813970865       38.7699707525  TIP3      3240            0.0000000000
     31972      3432  TIP3      H2             16.3507023164       11.3906341434       39.6129453225  TIP3      3240            0.0000000000
     31973      3433  TIP3      OH2            11.0591921635        4.7990366679       40.0714551649  TIP3      3241            0.0000000000
     31974      3433  TIP3      H1             10.7850038283        4.8212308288       40.9967934804  TIP3      3241            0.0000000000
     31975      3433  TIP3      H2             10.7775043380        3.9178673336       39.7778495025  TIP3      3241            0.0000000000
     31976      3434  TIP3      OH2             7.9071416778        5.2123515490       39.1892142282  TIP3      3242            0.0000000000
     31977      3434  TIP3      H1              7.4393922657        4.8108146550       39.9485093719  TIP3      3242            0.0000000000
     31978      3434  TIP3      H2              7.1964509546        5.6264574632       38.6793728442  TIP3      3242            0.0000000000
     31979      3435  TIP3      OH2             2.4079926782        5.5818387212       41.5742482088  TIP3      3243            0.0000000000
     31980      3435  TIP3      H1              2.9540160145        6.2519671974       41.1143083100  TIP3      3243            0.0000000000
     31981      3435  TIP3      H2              1.7672667413        6.2086106300       41.9710281958  TIP3      3243            0.0000000000
     31982      3436  TIP3      OH2             6.5969792879        7.9492816687       40.6179674482  TIP3      3244            0.0000000000
     31983      3436  TIP3      H1              6.0343374351        7.6354636336       39.8847763556  TIP3      3244            0.0000000000
     31984      3436  TIP3      H2              7.3901065199        8.2223342966       40.1289082834  TIP3      3244            0.0000000000
     31985      3437  TIP3      OH2            13.7803328349        5.3928714208       40.6711686919  TIP3      3245            0.0000000000
     31986      3437  TIP3      H1             12.8241271485        5.5291520009       40.5908519958  TIP3      3245            0.0000000000
     31987      3437  TIP3      H2             14.0938752721        6.2140480053       41.0971938092  TIP3      3245            0.0000000000
     31988      3438  TIP3      OH2            14.4943283296        7.3154351197       42.3728102516  TIP3      3246            0.0000000000
     31989      3438  TIP3      H1             15.4028767549        7.1327690834       42.6514032514  TIP3      3246            0.0000000000
     31990      3438  TIP3      H2             14.5643678415        8.0850556775       41.7773461212  TIP3      3246            0.0000000000
     31991      3439  TIP3      OH2            12.0302412007       14.0152385169       41.5730700363  TIP3      3247            0.0000000000
     31992      3439  TIP3      H1             11.6607431542       14.8508634994       41.8798428531  TIP3      3247            0.0000000000
     31993      3439  TIP3      H2             11.3234060561       13.3865462467       41.7514370312  TIP3      3247            0.0000000000
     31994      3440  TIP3      OH2            19.5573742248        7.4716213819       41.9760842918  TIP3      3248            0.0000000000
     31995      3440  TIP3      H1             18.8985078483        7.1108148206       41.3365343249  TIP3      3248            0.0000000000
     31996      3440  TIP3      H2             19.5287008521        8.4146412740       41.7319780630  TIP3      3248            0.0000000000
     31997      3441  TIP3      OH2             3.1696564231       10.2667219856       40.2273394936  TIP3      3249            0.0000000000
     31998      3441  TIP3      H1              3.7654385792       10.8722010253       40.7266422799  TIP3      3249            0.0000000000
     31999      3441  TIP3      H2              2.2905118242       10.5424080534       40.5420666843  TIP3      3249            0.0000000000
     32000      3442  TIP3      OH2            15.1676782625       14.3848033112       40.4299368087  TIP3      3250            0.0000000000
     32001      3442  TIP3      H1             15.4256794610       13.8784695674       41.1900007365  TIP3      3250            0.0000000000
     32002      3442  TIP3      H2             14.2244685298       14.1103760623       40.3635302824  TIP3      3250            0.0000000000
     32003      3443  TIP3      OH2            19.5499636552       18.6827983452       40.5486818091  TIP3      3251            0.0000000000
     32004      3443  TIP3      H1             20.3146318249       19.2852614154       40.4978687058  TIP3      3251            0.0000000000
     32005      3443  TIP3      H2             18.8710945928       19.2993509683       40.8872426857  TIP3      3251            0.0000000000
     32006      3444  TIP3      OH2             9.2022201813       15.3894564321       38.8013797733  TIP3      3252            0.0000000000
     32007      3444  TIP3      H1              9.3870141507       14.6006749626       38.2647436000  TIP3      3252            0.0000000000
     32008      3444  TIP3      H2              8.8507946333       14.9737926494       39.6225791405  TIP3      3252            0.0000000000
     32009      3445  TIP3      OH2             8.0598839329       14.8763260010       41.2547239397  TIP3      3253            0.0000000000
     32010      3445  TIP3      H1              8.2533363795       14.4235484034       42.0862905663  TIP3      3253            0.0000000000
     32011      3445  TIP3      H2              8.1543885527       15.8023263084       41.5621322491  TIP3      3253            0.0000000000
     32012      3446  TIP3      OH2             4.4214275250       12.1751398700       41.6608155009  TIP3      3254            0.0000000000
     32013      3446  TIP3      H1              3.8750354469       12.4973918205       42.3718022020  TIP3      3254            0.0000000000
     32014      3446  TIP3      H2              5.0919272189       12.8791553020       41.5316996151  TIP3      3254            0.0000000000
     32015      3447  TIP3      OH2            10.4449250812       16.3252381477       41.2927852896  TIP3      3255            0.0000000000
     32016      3447  TIP3      H1              9.8757644381       16.9266417028       41.8148981774  TIP3      3255            0.0000000000
     32017      3447  TIP3      H2             11.2054738552       16.9282224856       41.2148963544  TIP3      3255            0.0000000000
     32018      3448  TIP3      OH2             8.2388591774       17.6120446325       42.0599595365  TIP3      3256            0.0000000000
     32019      3448  TIP3      H1              8.3050471071       18.3908437340       41.4501581675  TIP3      3256            0.0000000000
     32020      3448  TIP3      H2              7.9789531942       18.0230517591       42.8902589189  TIP3      3256            0.0000000000
     32021      3449  TIP3      OH2             6.7687138524        4.1922965615       41.3987545219  TIP3      3257            0.0000000000
     32022      3449  TIP3      H1              6.6085272645        5.0526308216       41.7969867133  TIP3      3257            0.0000000000
     32023      3449  TIP3      H2              7.6623024206        4.0511358532       41.7587300962  TIP3      3257            0.0000000000
     32024      3450  TIP3      OH2             5.1194332519       14.7942820070       40.6525458210  TIP3      3258            0.0000000000
     32025      3450  TIP3      H1              5.7801054243       15.4269195064       40.9587601523  TIP3      3258            0.0000000000
     32026      3450  TIP3      H2              5.6600285856       14.3246854380       39.9895726056  TIP3      3258            0.0000000000
     32027      3451  TIP3      OH2             3.4623579356        7.4631792703       39.7994794449  TIP3      3259            0.0000000000
     32028      3451  TIP3      H1              3.4443975423        8.4217125222       39.9977437793  TIP3      3259            0.0000000000
     32029      3451  TIP3      H2              2.5719267149        7.2607698937       39.5125504496  TIP3      3259            0.0000000000
     32030      3452  TIP3      OH2            11.2558981370       17.2592173849       38.9241104890  TIP3      3260            0.0000000000
     32031      3452  TIP3      H1             10.5835488405       16.5876850244       39.2031252136  TIP3      3260            0.0000000000
     32032      3452  TIP3      H2             11.9728372534       16.6460491227       38.6860248827  TIP3      3260            0.0000000000
     32033      3453  TIP3      OH2            15.8269421122       17.0266447355       39.1230947871  TIP3      3261            0.0000000000
     32034      3453  TIP3      H1             16.0723634971       16.2235312470       39.6243294153  TIP3      3261            0.0000000000
     32035      3453  TIP3      H2             16.6048146692       17.1890280987       38.5726261793  TIP3      3261            0.0000000000
     32036      3454  TIP3      OH2             6.7031981924       12.9114479210       38.9946364416  TIP3      3262            0.0000000000
     32037      3454  TIP3      H1              6.8688292062       12.1497327716       39.5656469128  TIP3      3262            0.0000000000
     32038      3454  TIP3      H2              7.4492828029       12.8201888694       38.3655018143  TIP3      3262            0.0000000000
     32039      3455  TIP3      OH2            11.9196178568       14.0903792006       38.7648321241  TIP3      3263            0.0000000000
     32040      3455  TIP3      H1             11.8954189147       14.1067567163       39.7285692893  TIP3      3263            0.0000000000
     32041      3455  TIP3      H2             11.9857843023       13.1161974507       38.5908859590  TIP3      3263            0.0000000000
     32042      3456  TIP3      OH2             7.9145341610       10.9141981002       41.3206546837  TIP3      3264            0.0000000000
     32043      3456  TIP3      H1              7.4542418664       10.3955849696       41.9949500050  TIP3      3264            0.0000000000
     32044      3456  TIP3      H2              8.1974220174       10.2345755048       40.6761280750  TIP3      3264            0.0000000000
     32045      3457  TIP3      OH2             8.9851160338        9.1317739562       39.5775697349  TIP3      3265            0.0000000000
     32046      3457  TIP3      H1              8.8449582651        9.0545426360       38.6084543725  TIP3      3265            0.0000000000
     32047      3457  TIP3      H2              9.9583227907        9.2403479909       39.6499310356  TIP3      3265            0.0000000000
     32048      3458  TIP3      OH2            18.4194861176       11.5332165030       39.0665650497  TIP3      3266            0.0000000000
     32049      3458  TIP3      H1             18.1290042858       11.1221164641       38.2255800629  TIP3      3266            0.0000000000
     32050      3458  TIP3      H2             18.3805923699       12.4847246096       38.8133290004  TIP3      3266            0.0000000000
     32051      3459  TIP3      OH2             8.8432396894       19.8698714630       40.6887476276  TIP3      3267            0.0000000000
     32052      3459  TIP3      H1              9.8173864044       19.9529843743       40.7290322363  TIP3      3267            0.0000000000
     32053      3459  TIP3      H2              8.6660464236       20.4713809401       39.9509095608  TIP3      3267            0.0000000000
     32054      3460  TIP3      OH2             2.3779128911       14.4485095967       40.1315161374  TIP3      3268            0.0000000000
     32055      3460  TIP3      H1              3.3345845088       14.5457493389       40.3414311025  TIP3      3268            0.0000000000
     32056      3460  TIP3      H2              2.4396765248       13.7792764285       39.4175966395  TIP3      3268            0.0000000000
     32057      3461  TIP3      OH2            19.5383789424       10.2660407459       41.1557963237  TIP3      3269            0.0000000000
     32058      3461  TIP3      H1             19.0112458554       10.6689669248       40.4185942927  TIP3      3269            0.0000000000
     32059      3461  TIP3      H2             19.5542917675       10.9443180709       41.8530537405  TIP3      3269            0.0000000000
     32060      3462  TIP3      OH2            17.8857407702        7.5702433770       39.7739654575  TIP3      3270            0.0000000000
     32061      3462  TIP3      H1             17.9169360142        8.2247686712       39.0649666593  TIP3      3270            0.0000000000
     32062      3462  TIP3      H2             17.6944996798        6.7359541496       39.2959548844  TIP3      3270            0.0000000000
     32063      3463  TIP3      OH2            17.1143585656        4.9713230192       38.8917645344  TIP3      3271            0.0000000000
     32064      3463  TIP3      H1             17.7007516901        4.5773405327       39.5578788909  TIP3      3271            0.0000000000
     32065      3463  TIP3      H2             16.2565261683        4.5805168079       39.1112861038  TIP3      3271            0.0000000000
     32066      3464  TIP3      OH2            19.1969916817        3.8329338024       40.4855720415  TIP3      3272            0.0000000000
     32067      3464  TIP3      H1             19.5848313852        3.1252594031       39.9338671805  TIP3      3272            0.0000000000
     32068      3464  TIP3      H2             19.8831314102        4.5222990816       40.5265472178  TIP3      3272            0.0000000000
     32069      3465  TIP3      OH2             2.7721866349        1.9020339864       41.5004804613  TIP3      3273            0.0000000000
     32070      3465  TIP3      H1              3.2431873373        2.5556096614       40.9678322302  TIP3      3273            0.0000000000
     32071      3465  TIP3      H2              2.1837927516        2.4731956316       41.9896510219  TIP3      3273            0.0000000000
     32072      3466  TIP3      OH2             4.5784521274        3.8400601565       39.9736915816  TIP3      3274            0.0000000000
     32073      3466  TIP3      H1              5.0885092088        3.1961679310       39.4518466923  TIP3      3274            0.0000000000
     32074      3466  TIP3      H2              5.2292746985        4.0980865235       40.6591979408  TIP3      3274            0.0000000000
     32075      3467  TIP3      OH2            11.4933817910       19.1094363509       40.8624211489  TIP3      3275            0.0000000000
     32076      3467  TIP3      H1             12.4065902480       19.3726969712       40.6653604593  TIP3      3275            0.0000000000
     32077      3467  TIP3      H2             11.3067218314       18.5879148687       40.0494196157  TIP3      3275            0.0000000000
     32078      3468  TIP3      OH2             4.4524045440       18.8028556297       39.4614829356  TIP3      3276            0.0000000000
     32079      3468  TIP3      H1              4.1869766936       19.0485062254       40.3626096502  TIP3      3276            0.0000000000
     32080      3468  TIP3      H2              5.2240417953       18.2191376708       39.6080226562  TIP3      3276            0.0000000000
     32081      3469  TIP3      OH2            30.6003527577        9.0098913799       40.1286392195  TIP3      3277            0.0000000000
     32082      3469  TIP3      H1             31.3154305055        9.0465806708       40.8013748434  TIP3      3277            0.0000000000
     32083      3469  TIP3      H2             30.9645916504        8.3199514855       39.5660397050  TIP3      3277            0.0000000000
     32084      3470  TIP3      OH2            32.8109410335        9.7466422945       41.6652095676  TIP3      3278            0.0000000000
     32085      3470  TIP3      H1             33.2630457128       10.0177921229       42.4944337136  TIP3      3278            0.0000000000
     32086      3470  TIP3      H2             33.1851618964       10.3580642640       41.0053307893  TIP3      3278            0.0000000000
     32087      3471  TIP3      OH2            33.1638401212       18.7584601862       40.6518294578  TIP3      3279            0.0000000000
     32088      3471  TIP3      H1             33.5873515062       18.0047037475       40.1836178843  TIP3      3279            0.0000000000
     32089      3471  TIP3      H2             33.2109808647       18.4614809418       41.5733699570  TIP3      3279            0.0000000000
     32090      3472  TIP3      OH2            34.3987251839       10.8586574480       39.5533718277  TIP3      3280            0.0000000000
     32091      3472  TIP3      H1             34.3325224070       10.6929563768       38.5818522366  TIP3      3280            0.0000000000
     32092      3472  TIP3      H2             35.1985099858       11.3885439766       39.5846222457  TIP3      3280            0.0000000000
     32093      3473  TIP3      OH2            29.9178570253        4.7972924618       40.0714502057  TIP3      3281            0.0000000000
     32094      3473  TIP3      H1             29.6411447153        4.8208367399       40.9965521642  TIP3      3281            0.0000000000
     32095      3473  TIP3      H2             29.6336931296        3.9183631598       39.7767336074  TIP3      3281            0.0000000000
     32096      3474  TIP3      OH2            26.7649730789        5.2007058328       39.1732760688  TIP3      3282            0.0000000000
     32097      3474  TIP3      H1             26.3192091124        4.8334586369       39.9555287808  TIP3      3282            0.0000000000
     32098      3474  TIP3      H2             26.0621148895        5.6443868979       38.6773125353  TIP3      3282            0.0000000000
     32099      3475  TIP3      OH2            21.2652327550        5.5645006710       41.5585603946  TIP3      3283            0.0000000000
     32100      3475  TIP3      H1             21.8072546790        6.2549231573       41.1116729365  TIP3      3283            0.0000000000
     32101      3475  TIP3      H2             20.6313891972        6.1973482424       41.9711086893  TIP3      3283            0.0000000000
     32102      3476  TIP3      OH2            25.4481106592        7.9460115005       40.6215225480  TIP3      3284            0.0000000000
     32103      3476  TIP3      H1             24.8858668169        7.6325283658       39.8878005086  TIP3      3284            0.0000000000
     32104      3476  TIP3      H2             26.2396951686        8.2160965130       40.1325281023  TIP3      3284            0.0000000000
     32105      3477  TIP3      OH2            32.6563060977        5.3939210224       40.6523889781  TIP3      3285            0.0000000000
     32106      3477  TIP3      H1             31.6921724785        5.4895767286       40.5866277504  TIP3      3285            0.0000000000
     32107      3477  TIP3      H2             32.9152877992        6.2168339257       41.1068966435  TIP3      3285            0.0000000000
     32108      3478  TIP3      OH2            33.3662435461        7.3149126719       42.3597639951  TIP3      3286            0.0000000000
     32109      3478  TIP3      H1             34.2694445875        7.1164270699       42.6245879015  TIP3      3286            0.0000000000
     32110      3478  TIP3      H2             33.4260519617        8.1072347427       41.7985452669  TIP3      3286            0.0000000000
     32111      3479  TIP3      OH2            30.8768454946       14.0057983778       41.5594681151  TIP3      3287            0.0000000000
     32112      3479  TIP3      H1             30.5239720425       14.8462320847       41.8820311757  TIP3      3287            0.0000000000
     32113      3479  TIP3      H2             30.1683700342       13.3877468225       41.7706406485  TIP3      3287            0.0000000000
     32114      3480  TIP3      OH2            22.0244105682       10.2632209738       40.2313865403  TIP3      3288            0.0000000000
     32115      3480  TIP3      H1             22.6211558852       10.8720788445       40.7255682544  TIP3      3288            0.0000000000
     32116      3480  TIP3      H2             21.1469919899       10.5425848960       40.5416300709  TIP3      3288            0.0000000000
     32117      3481  TIP3      OH2            33.9664775385       14.2474402552       40.3327182183  TIP3      3289            0.0000000000
     32118      3481  TIP3      H1             34.2780106954       13.9305976457       41.1790844855  TIP3      3289            0.0000000000
     32119      3481  TIP3      H2             33.0091599353       14.1487320320       40.4420451778  TIP3      3289            0.0000000000
     32120      3482  TIP3      OH2            28.0932997475       15.3771894217       38.8112697436  TIP3      3290            0.0000000000
     32121      3482  TIP3      H1             28.2146472444       14.5961854165       38.2542941263  TIP3      3290            0.0000000000
     32122      3482  TIP3      H2             27.7086384801       14.9721337147       39.6244275967  TIP3      3290            0.0000000000
     32123      3483  TIP3      OH2            26.9160542051       14.8763628193       41.2533217170  TIP3      3291            0.0000000000
     32124      3483  TIP3      H1             27.1092127051       14.4237791223       42.0858051876  TIP3      3291            0.0000000000
     32125      3483  TIP3      H2             27.0102500497       15.8020847229       41.5626939979  TIP3      3291            0.0000000000
     32126      3484  TIP3      OH2            23.2784804058       12.1756067350       41.6607918786  TIP3      3292            0.0000000000
     32127      3484  TIP3      H1             22.7319724530       12.4988223715       42.3709652833  TIP3      3292            0.0000000000
     32128      3484  TIP3      H2             23.9503398250       12.8788699445       41.5318039273  TIP3      3292            0.0000000000
     32129      3485  TIP3      OH2            29.2976600282       16.3264931874       41.2921473334  TIP3      3293            0.0000000000
     32130      3485  TIP3      H1             28.7296217470       16.9273258834       41.8160108833  TIP3      3293            0.0000000000
     32131      3485  TIP3      H2             30.0580896481       16.9293254993       41.2191240254  TIP3      3293            0.0000000000
     32132      3486  TIP3      OH2            27.0943557605       17.6122561084       42.0598373171  TIP3      3294            0.0000000000
     32133      3486  TIP3      H1             27.1607810419       18.3909453986       41.4502525767  TIP3      3294            0.0000000000
     32134      3486  TIP3      H2             26.8349489581       18.0230504662       42.8903304061  TIP3      3294            0.0000000000
     32135      3487  TIP3      OH2            25.6230474339        4.1869389267       41.4138269314  TIP3      3295            0.0000000000
     32136      3487  TIP3      H1             25.4822260771        5.0597821383       41.7994066458  TIP3      3295            0.0000000000
     32137      3487  TIP3      H2             26.5249089307        4.0600614399       41.7615031227  TIP3      3295            0.0000000000
     32138      3488  TIP3      OH2            23.9740241392       14.7928730220       40.6531344004  TIP3      3296            0.0000000000
     32139      3488  TIP3      H1             24.6363091858       15.4261666103       40.9588686239  TIP3      3296            0.0000000000
     32140      3488  TIP3      H2             24.5155603993       14.3246425297       39.9898142886  TIP3      3296            0.0000000000
     32141      3489  TIP3      OH2            22.3117252414        7.4425113990       39.8007672892  TIP3      3297            0.0000000000
     32142      3489  TIP3      H1             22.3106827165        8.4017401842       40.0031329549  TIP3      3297            0.0000000000
     32143      3489  TIP3      H2             21.4174481073        7.2727880577       39.5070187210  TIP3      3297            0.0000000000
     32144      3490  TIP3      OH2            30.1212430680       17.2579529923       38.9217272405  TIP3      3298            0.0000000000
     32145      3490  TIP3      H1             29.4351467361       16.5996216361       39.2049312378  TIP3      3298            0.0000000000
     32146      3490  TIP3      H2             30.8381758393       16.6484928300       38.6901104235  TIP3      3298            0.0000000000
     32147      3491  TIP3      OH2            34.6569549701       17.0006213849       39.1732268166  TIP3      3299            0.0000000000
     32148      3491  TIP3      H1             34.9568013884       16.2252767162       39.6703462671  TIP3      3299            0.0000000000
     32149      3491  TIP3      H2             35.4207023787       17.1683584418       38.5901312751  TIP3      3299            0.0000000000
     32150      3492  TIP3      OH2            25.5614459838       12.9108591776       38.9925201756  TIP3      3300            0.0000000000
     32151      3492  TIP3      H1             25.7238119459       12.1505417730       39.5670657557  TIP3      3300            0.0000000000
     32152      3492  TIP3      H2             26.3056659427       12.8191952591       38.3653179957  TIP3      3300            0.0000000000
     32153      3493  TIP3      OH2            31.0159556433       14.0171550187       38.7710197686  TIP3      3301            0.0000000000
     32154      3493  TIP3      H1             30.7175157113       14.1252087531       39.6872542860  TIP3      3301            0.0000000000
     32155      3493  TIP3      H2             30.7803293722       13.0696428923       38.6040973739  TIP3      3301            0.0000000000
     32156      3494  TIP3      OH2            26.7600665796       10.9102155610       41.3248232385  TIP3      3302            0.0000000000
     32157      3494  TIP3      H1             26.2996445712       10.3939625191       42.0018370552  TIP3      3302            0.0000000000
     32158      3494  TIP3      H2             27.0512986227       10.2329329713       40.6803306794  TIP3      3302            0.0000000000
     32159      3495  TIP3      OH2            27.8340321341        9.1338569526       39.5785882309  TIP3      3303            0.0000000000
     32160      3495  TIP3      H1             27.7025950373        9.0524944905       38.6097410957  TIP3      3303            0.0000000000
     32161      3495  TIP3      H2             28.8090562172        9.2296697349       39.6617690822  TIP3      3303            0.0000000000
     32162      3496  TIP3      OH2            27.7048541842       19.8720224220       40.6872044431  TIP3      3304            0.0000000000
     32163      3496  TIP3      H1             28.6760696029       19.9537078045       40.7281102958  TIP3      3304            0.0000000000
     32164      3496  TIP3      H2             27.5202144110       20.4716708742       39.9508783921  TIP3      3304            0.0000000000
     32165      3497  TIP3      OH2            21.2313670274       14.4396009821       40.1403734264  TIP3      3305            0.0000000000
     32166      3497  TIP3      H1             22.1893231908       14.5451398137       40.3417316541  TIP3      3305            0.0000000000
     32167      3497  TIP3      H2             21.2948410900       13.7792479391       39.4178562141  TIP3      3305            0.0000000000
     32168      3498  TIP3      OH2            35.9646862804        4.9437879645       38.8850418102  TIP3      3306            0.0000000000
     32169      3498  TIP3      H1             36.5584992934        4.5987886567       39.5553562646  TIP3      3306            0.0000000000
     32170      3498  TIP3      H2             35.0970912388        4.5682177199       39.1137953469  TIP3      3306            0.0000000000
     32171      3499  TIP3      OH2            21.3648934788        1.9411378061       41.7889369426  TIP3      3307            0.0000000000
     32172      3499  TIP3      H1             21.7750748321        2.7146091387       41.4131991081  TIP3      3307            0.0000000000
     32173      3499  TIP3      H2             20.7354445623        2.4821863098       42.2544876839  TIP3      3307            0.0000000000
     32174      3500  TIP3      OH2            23.5068690339        3.9425632311       39.9449942530  TIP3      3308            0.0000000000
     32175      3500  TIP3      H1             24.0608928712        3.3537802829       39.3943350967  TIP3      3308            0.0000000000
     32176      3500  TIP3      H2             24.1444136682        4.1893388645       40.6592589285  TIP3      3308            0.0000000000
     32177      3501  TIP3      OH2            30.3462767514       19.0962062540       40.8608860971  TIP3      3309            0.0000000000
     32178      3501  TIP3      H1             31.2577125598       19.3720025042       40.6666787551  TIP3      3309            0.0000000000
     32179      3501  TIP3      H2             30.1613821910       18.5821630669       40.0438699663  TIP3      3309            0.0000000000
     32180      3502  TIP3      OH2            23.3086171406       18.8029458734       39.4612820999  TIP3      3310            0.0000000000
     32181      3502  TIP3      H1             23.0428464135       19.0485820420       40.3623904108  TIP3      3310            0.0000000000
     32182      3502  TIP3      H2             24.0800800729       18.2192550493       39.6081313823  TIP3      3310            0.0000000000
     32183      3503  TIP3      OH2           -25.9673203428       27.8642893459       40.1312698362  TIP3      3311            0.0000000000
     32184      3503  TIP3      H1            -25.2551832341       27.9021229079       40.8072136591  TIP3      3311            0.0000000000
     32185      3503  TIP3      H2            -25.5981251939       27.1758978654       39.5674755269  TIP3      3311            0.0000000000
     32186      3504  TIP3      OH2           -23.7146964596       28.5975337162       41.6364634507  TIP3      3312            0.0000000000
     32187      3504  TIP3      H1            -23.3027179582       28.8682261485       42.4901648082  TIP3      3312            0.0000000000
     32188      3504  TIP3      H2            -23.3444600109       29.2205742807       40.9841906591  TIP3      3312            0.0000000000
     32189      3505  TIP3      OH2           -19.9550955753       20.5065996473       41.6775626734  TIP3      3313            0.0000000000
     32190      3505  TIP3      H1            -20.8979549366       20.5872988826       41.8730297004  TIP3      3313            0.0000000000
     32191      3505  TIP3      H2            -19.7562397364       21.3428662740       41.2273141446  TIP3      3313            0.0000000000
     32192      3506  TIP3      OH2           -18.7702048566       34.8204121843       39.9335655371  TIP3      3314            0.0000000000
     32193      3506  TIP3      H1            -18.7003509224       35.7640265388       40.1554305375  TIP3      3314            0.0000000000
     32194      3506  TIP3      H2            -17.8428845678       34.5337581128       39.9876106832  TIP3      3314            0.0000000000
     32195      3507  TIP3      OH2           -22.1911273963       29.7504045365       39.5323843333  TIP3      3315            0.0000000000
     32196      3507  TIP3      H1            -22.2503537383       29.5756403452       38.5556534506  TIP3      3315            0.0000000000
     32197      3507  TIP3      H2            -21.3550328774       30.2330268476       39.5611169716  TIP3      3315            0.0000000000
     32198      3508  TIP3      OH2           -26.6783168219       23.6647234991       40.0626654828  TIP3      3316            0.0000000000
     32199      3508  TIP3      H1            -26.9112920113       23.6819056760       41.0017635290  TIP3      3316            0.0000000000
     32200      3508  TIP3      H2            -26.9160281005       22.7651060428       39.7912729873  TIP3      3316            0.0000000000
     32201      3509  TIP3      OH2           -29.8212122771       24.0008577638       39.1341572152  TIP3      3317            0.0000000000
     32202      3509  TIP3      H1            -30.2562276866       23.6865874430       39.9575716040  TIP3      3317            0.0000000000
     32203      3509  TIP3      H2            -30.5263737513       24.5118284054       38.7100849044  TIP3      3317            0.0000000000
     32204      3510  TIP3      OH2           -35.0982857819       24.5993179632       41.6026228181  TIP3      3318            0.0000000000
     32205      3510  TIP3      H1            -34.6896474174       25.2664224770       41.0240993110  TIP3      3318            0.0000000000
     32206      3510  TIP3      H2            -35.9345028459       24.9848134840       41.9192136324  TIP3      3318            0.0000000000
     32207      3511  TIP3      OH2           -31.1205136289       26.8013873114       40.6178858024  TIP3      3319            0.0000000000
     32208      3511  TIP3      H1            -31.6766156617       26.4920634060       39.8776387482  TIP3      3319            0.0000000000
     32209      3511  TIP3      H2            -30.3243573862       27.0747886390       40.1383077864  TIP3      3319            0.0000000000
     32210      3512  TIP3      OH2           -23.9381928161       24.2371815221       40.6727333797  TIP3      3320            0.0000000000
     32211      3512  TIP3      H1            -24.8945341715       24.3708014866       40.5947781149  TIP3      3320            0.0000000000
     32212      3512  TIP3      H2            -23.6221805508       25.0602883945       41.0998962678  TIP3      3320            0.0000000000
     32213      3513  TIP3      OH2           -23.2144153014       26.1406744348       42.3493393828  TIP3      3321            0.0000000000
     32214      3513  TIP3      H1            -22.3128925052       26.0044019573       42.6758973236  TIP3      3321            0.0000000000
     32215      3513  TIP3      H2            -23.1518959736       26.9470438866       41.8082464564  TIP3      3321            0.0000000000
     32216      3514  TIP3      OH2           -25.6781657882       32.8443800015       41.5643525255  TIP3      3322            0.0000000000
     32217      3514  TIP3      H1            -26.0330268006       33.6951037801       41.8629564651  TIP3      3322            0.0000000000
     32218      3514  TIP3      H2            -26.3968423168       32.2439213113       41.7805966506  TIP3      3322            0.0000000000
     32219      3515  TIP3      OH2           -18.1577416614       26.3338031674       41.9755376329  TIP3      3323            0.0000000000
     32220      3515  TIP3      H1            -18.8178949217       25.9715190704       41.3381709544  TIP3      3323            0.0000000000
     32221      3515  TIP3      H2            -18.1879217854       27.2790418225       41.7408134817  TIP3      3323            0.0000000000
     32222      3516  TIP3      OH2           -34.6034975648       29.0789827070       40.2819325923  TIP3      3324            0.0000000000
     32223      3516  TIP3      H1            -33.9527717740       29.6943094546       40.7200553405  TIP3      3324            0.0000000000
     32224      3516  TIP3      H2            -35.4394078517       29.4524165526       40.5563447514  TIP3      3324            0.0000000000
     32225      3517  TIP3      OH2           -22.5770623256       33.0661265363       40.3023775924  TIP3      3325            0.0000000000
     32226      3517  TIP3      H1            -22.2849974763       32.7709152338       41.1694111189  TIP3      3325            0.0000000000
     32227      3517  TIP3      H2            -23.5438155821       33.0109893100       40.4259333793  TIP3      3325            0.0000000000
     32228      3518  TIP3      OH2           -28.4769030658       34.2199572838       38.8159900756  TIP3      3326            0.0000000000
     32229      3518  TIP3      H1            -28.3709784475       33.4359691566       38.2550492410  TIP3      3326            0.0000000000
     32230      3518  TIP3      H2            -28.8567706348       33.8157501521       39.6287586233  TIP3      3326            0.0000000000
     32231      3519  TIP3      OH2           -29.7035673091       33.7217165782       41.2725937567  TIP3      3327            0.0000000000
     32232      3519  TIP3      H1            -29.4552822754       33.2627125135       42.0896932769  TIP3      3327            0.0000000000
     32233      3519  TIP3      H2            -29.5710964212       34.6451846172       41.5521430547  TIP3      3327            0.0000000000
     32234      3520  TIP3      OH2           -33.2841815306       31.0326539328       41.6531134009  TIP3      3328            0.0000000000
     32235      3520  TIP3      H1            -33.8316040983       31.3603473118       42.3634056250  TIP3      3328            0.0000000000
     32236      3520  TIP3      H2            -32.6360853161       31.7631943800       41.5305320860  TIP3      3328            0.0000000000
     32237      3521  TIP3      OH2           -27.2351553885       35.1542939668       41.3945521217  TIP3      3329            0.0000000000
     32238      3521  TIP3      H1            -27.8075122427       35.7940172784       41.8531824676  TIP3      3329            0.0000000000
     32239      3521  TIP3      H2            -26.4940463892       35.7605074296       41.1956829525  TIP3      3329            0.0000000000
     32240      3522  TIP3      OH2           -29.4338531469      -36.5398227703       42.0700503351  TIP3      3330            0.0000000000
     32241      3522  TIP3      H1            -29.4366274693      -35.7811394745       41.4648660571  TIP3      3330            0.0000000000
     32242      3522  TIP3      H2            -29.7841582140      -36.1932777341       42.8893155754  TIP3      3330            0.0000000000
     32243      3523  TIP3      OH2           -30.9386806718       23.0581833816       41.3804491434  TIP3      3331            0.0000000000
     32244      3523  TIP3      H1            -31.0981175135       23.9158463875       41.7885723480  TIP3      3331            0.0000000000
     32245      3523  TIP3      H2            -30.0584043062       22.9053932528       41.7704724582  TIP3      3331            0.0000000000
     32246      3524  TIP3      OH2           -32.6285371753       33.7042752871       40.6202791857  TIP3      3332            0.0000000000
     32247      3524  TIP3      H1            -31.9507996518       34.3099174243       40.9628334027  TIP3      3332            0.0000000000
     32248      3524  TIP3      H2            -32.0699712932       33.1984292494       39.9962011548  TIP3      3332            0.0000000000
     32249      3525  TIP3      OH2           -34.2650556839       26.3220707907       39.7518331281  TIP3      3333            0.0000000000
     32250      3525  TIP3      H1            -34.2548730131       27.2748730550       39.9645135550  TIP3      3333            0.0000000000
     32251      3525  TIP3      H2            -35.1574294586       26.1051608763       39.4720969950  TIP3      3333            0.0000000000
     32252      3526  TIP3      OH2           -26.4450460150       36.0554772106       39.0120911982  TIP3      3334            0.0000000000
     32253      3526  TIP3      H1            -27.1577730189       35.4094876027       39.1869041146  TIP3      3334            0.0000000000
     32254      3526  TIP3      H2            -25.7209005881       35.5178908116       38.6920351370  TIP3      3334            0.0000000000
     32255      3527  TIP3      OH2           -21.7236114834       35.8203868417       39.3260855507  TIP3      3335            0.0000000000
     32256      3527  TIP3      H1            -21.4811860809       34.9602348174       39.6642765625  TIP3      3335            0.0000000000
     32257      3527  TIP3      H2            -21.0325524242       36.0326696333       38.6700836342  TIP3      3335            0.0000000000
     32258      3528  TIP3      OH2           -31.0091776460       31.7451865229       38.9900674072  TIP3      3336            0.0000000000
     32259      3528  TIP3      H1            -30.8406855686       30.9905696021       39.5670780765  TIP3      3336            0.0000000000
     32260      3528  TIP3      H2            -30.2582693314       31.6706853615       38.3688924261  TIP3      3336            0.0000000000
     32261      3529  TIP3      OH2           -25.5248140398       32.8848795997       38.7758257723  TIP3      3337            0.0000000000
     32262      3529  TIP3      H1            -25.8499621348       33.0026753114       39.6813691329  TIP3      3337            0.0000000000
     32263      3529  TIP3      H2            -25.7789043154       31.9468083294       38.6043009231  TIP3      3337            0.0000000000
     32264      3530  TIP3      OH2           -29.8195461495       29.7590043429       41.3220365515  TIP3      3338            0.0000000000
     32265      3530  TIP3      H1            -30.2701830752       29.2417658492       42.0044676381  TIP3      3338            0.0000000000
     32266      3530  TIP3      H2            -29.5076984338       29.0882789324       40.6788113007  TIP3      3338            0.0000000000
     32267      3531  TIP3      OH2           -28.7435157848       27.9915227302       39.5780221918  TIP3      3339            0.0000000000
     32268      3531  TIP3      H1            -28.8812373618       27.8905650711       38.6102206892  TIP3      3339            0.0000000000
     32269      3531  TIP3      H2            -27.7664255065       28.0854105892       39.6606535861  TIP3      3339            0.0000000000
     32270      3532  TIP3      OH2           -19.3806108721       30.3676766553       39.0784386568  TIP3      3340            0.0000000000
     32271      3532  TIP3      H1            -19.5674008706       29.9694438637       38.2069238662  TIP3      3340            0.0000000000
     32272      3532  TIP3      H2            -19.3114838045       31.3204729146       38.8235491931  TIP3      3340            0.0000000000
     32273      3533  TIP3      OH2           -35.3017106476       33.3770330665       40.1209769814  TIP3      3341            0.0000000000
     32274      3533  TIP3      H1            -34.3521782609       33.4245069523       40.3617546608  TIP3      3341            0.0000000000
     32275      3533  TIP3      H2            -35.2503617463       32.6501755245       39.4731015218  TIP3      3341            0.0000000000
     32276      3534  TIP3      OH2           -18.1476291506       29.1142767707       41.1494170282  TIP3      3342            0.0000000000
     32277      3534  TIP3      H1            -18.6810371324       29.5211486022       40.4237483915  TIP3      3342            0.0000000000
     32278      3534  TIP3      H2            -18.1827691229       29.7784494724       41.8718009505  TIP3      3342            0.0000000000
     32279      3535  TIP3      OH2           -19.8277013820       26.4230311968       39.7818405765  TIP3      3343            0.0000000000
     32280      3535  TIP3      H1            -19.7615069913       27.0583972543       39.0617646204  TIP3      3343            0.0000000000
     32281      3535  TIP3      H2            -20.0148901763       25.5848630534       39.3050219445  TIP3      3343            0.0000000000
     32282      3536  TIP3      OH2           -20.5929857763       23.8515854136       38.9105555367  TIP3      3344            0.0000000000
     32283      3536  TIP3      H1            -19.9944670086       23.4265588375       39.5506534022  TIP3      3344            0.0000000000
     32284      3536  TIP3      H2            -21.4472895248       23.4378181878       39.1114792606  TIP3      3344            0.0000000000
     32285      3537  TIP3      OH2           -18.5318303906       22.7112880812       40.4486899697  TIP3      3345            0.0000000000
     32286      3537  TIP3      H1            -18.0995913273       21.9749348944       39.9644281157  TIP3      3345            0.0000000000
     32287      3537  TIP3      H2            -17.8083939813       23.3551933192       40.5399557414  TIP3      3345            0.0000000000
     32288      3538  TIP3      OH2           -34.9893585100       20.7473998537       41.4435169149  TIP3      3346            0.0000000000
     32289      3538  TIP3      H1            -34.4402055366       21.4228008075       41.0150259573  TIP3      3346            0.0000000000
     32290      3538  TIP3      H2            -35.5532909141       21.2843023335       42.0090410234  TIP3      3346            0.0000000000
     32291      3539  TIP3      OH2           -33.1145349823       22.7124243619       39.9315463416  TIP3      3347            0.0000000000
     32292      3539  TIP3      H1            -32.6034135906       22.0310978601       39.4804508655  TIP3      3347            0.0000000000
     32293      3539  TIP3      H2            -32.5096911818       22.9465247187       40.6669539535  TIP3      3347            0.0000000000
     32294      3540  TIP3      OH2            -7.0992689591       27.8680652558       40.1205688946  TIP3      3348            0.0000000000
     32295      3540  TIP3      H1             -6.3970801095       27.9004410433       40.8060340872  TIP3      3348            0.0000000000
     32296      3540  TIP3      H2             -6.7403847651       27.1710071574       39.5631626059  TIP3      3348            0.0000000000
     32297      3541  TIP3      OH2            -4.8579656596       28.5978635337       41.6376503702  TIP3      3349            0.0000000000
     32298      3541  TIP3      H1             -4.4467949217       28.8682324552       42.4914024683  TIP3      3349            0.0000000000
     32299      3541  TIP3      H2             -4.4888648335       29.2236304868       40.9876993899  TIP3      3349            0.0000000000
     32300      3542  TIP3      OH2            -1.0990058099       20.5067325081       41.6776223779  TIP3      3350            0.0000000000
     32301      3542  TIP3      H1             -2.0419091691       20.5870890398       41.8730140788  TIP3      3350            0.0000000000
     32302      3542  TIP3      H2             -0.9003965706       21.3428486503       41.2271285389  TIP3      3350            0.0000000000
     32303      3543  TIP3      OH2             0.0890423472       34.8239783228       40.0235350971  TIP3      3351            0.0000000000
     32304      3543  TIP3      H1              0.1659274254       35.7826098080       40.0432965953  TIP3      3351            0.0000000000
     32305      3543  TIP3      H2              1.0094317705       34.4980878309       39.9252776958  TIP3      3351            0.0000000000
     32306      3544  TIP3      OH2            -3.3357914961       29.7612749746       39.5417788136  TIP3      3352            0.0000000000
     32307      3544  TIP3      H1             -3.3984977014       29.6021231019       38.5684413128  TIP3      3352            0.0000000000
     32308      3544  TIP3      H2             -2.4946753534       30.2330355364       39.5680049434  TIP3      3352            0.0000000000
     32309      3545  TIP3      OH2            -7.7977092335       23.6538807624       40.0712580882  TIP3      3353            0.0000000000
     32310      3545  TIP3      H1             -8.0716053567       23.6760360053       40.9967193139  TIP3      3353            0.0000000000
     32311      3545  TIP3      H2             -8.0791714783       22.7721324995       39.7783111899  TIP3      3353            0.0000000000
     32312      3546  TIP3      OH2           -10.9505415714       24.0668967714       39.1908847840  TIP3      3354            0.0000000000
     32313      3546  TIP3      H1            -11.4228913482       23.6605519199       39.9463176852  TIP3      3354            0.0000000000
     32314      3546  TIP3      H2            -11.6593744074       24.4824618443       38.6794495336  TIP3      3354            0.0000000000
     32315      3547  TIP3      OH2           -16.4471764593       24.4381194567       41.5744247197  TIP3      3355            0.0000000000
     32316      3547  TIP3      H1            -15.9023598794       25.1086396582       41.1137560130  TIP3      3355            0.0000000000
     32317      3547  TIP3      H2            -17.0889047880       25.0645285116       41.9708073377  TIP3      3355            0.0000000000
     32318      3548  TIP3      OH2           -12.2646485719       26.8017511972       40.6213721903  TIP3      3356            0.0000000000
     32319      3548  TIP3      H1            -12.8245769052       26.4905799063       39.8857144057  TIP3      3356            0.0000000000
     32320      3548  TIP3      H2            -11.4728777868       27.0711101249       40.1331524872  TIP3      3356            0.0000000000
     32321      3549  TIP3      OH2            -5.0765223765       24.2457977379       40.6508455255  TIP3      3357            0.0000000000
     32322      3549  TIP3      H1             -6.0360221604       24.3695952446       40.5937410009  TIP3      3357            0.0000000000
     32323      3549  TIP3      H2             -4.7658898791       25.0588004504       41.1016367151  TIP3      3357            0.0000000000
     32324      3550  TIP3      OH2            -4.3586274994       26.1394306031       42.3470626174  TIP3      3358            0.0000000000
     32325      3550  TIP3      H1             -3.4574956163       26.0043815700       42.6761770558  TIP3      3358            0.0000000000
     32326      3550  TIP3      H2             -4.2955089950       26.9481972424       41.8100692228  TIP3      3358            0.0000000000
     32327      3551  TIP3      OH2            -6.8222703339       32.8448890077       41.5617995957  TIP3      3359            0.0000000000
     32328      3551  TIP3      H1             -7.1769350147       33.6956100993       41.8619620885  TIP3      3359            0.0000000000
     32329      3551  TIP3      H2             -7.5404651094       32.2441737493       41.7799585342  TIP3      3359            0.0000000000
     32330      3552  TIP3      OH2             0.7006577624       26.3360611920       41.9776086672  TIP3      3360            0.0000000000
     32331      3552  TIP3      H1              0.0391947856       25.9709095379       41.3446204311  TIP3      3360            0.0000000000
     32332      3552  TIP3      H2              0.6686498931       27.2812091570       41.7431455808  TIP3      3360            0.0000000000
     32333      3553  TIP3      OH2           -15.6860618931       29.1223151357       40.2286702289  TIP3      3361            0.0000000000
     32334      3553  TIP3      H1            -15.0898175544       29.7243479087       40.7303012261  TIP3      3361            0.0000000000
     32335      3553  TIP3      H2            -16.5657377322       29.3980943253       40.5423233681  TIP3      3361            0.0000000000
     32336      3554  TIP3      OH2            -3.7075268255       33.1020130105       40.3204174590  TIP3      3362            0.0000000000
     32337      3554  TIP3      H1             -3.4350816189       32.7329592479       41.1641816970  TIP3      3362            0.0000000000
     32338      3554  TIP3      H2             -4.6743583760       33.0203628845       40.4305295020  TIP3      3362            0.0000000000
     32339      3555  TIP3      OH2            -9.6025242370       34.2174303709       38.8075558329  TIP3      3363            0.0000000000
     32340      3555  TIP3      H1             -9.5165290154       33.4293613265       38.2505523557  TIP3      3363            0.0000000000
     32341      3555  TIP3      H2             -9.9948161711       33.8194773593       39.6192451721  TIP3      3363            0.0000000000
     32342      3556  TIP3      OH2           -10.8399803948       33.7251671602       41.2733527163  TIP3      3364            0.0000000000
     32343      3556  TIP3      H1            -10.5995519895       33.2625447270       42.0895403302  TIP3      3364            0.0000000000
     32344      3556  TIP3      H2            -10.7180847919       34.6490124667       41.5545921565  TIP3      3364            0.0000000000
     32345      3557  TIP3      OH2           -14.4377142535       31.0490019849       41.6610935590  TIP3      3365            0.0000000000
     32346      3557  TIP3      H1            -14.9819304716       31.3760245939       42.3715978359  TIP3      3365            0.0000000000
     32347      3557  TIP3      H2            -13.7735390855       31.7600208248       41.5308530909  TIP3      3365            0.0000000000
     32348      3558  TIP3      OH2            -8.3824508670       35.1485352350       41.4082557518  TIP3      3366            0.0000000000
     32349      3558  TIP3      H1             -8.9634148869       35.7909619938       41.8615817716  TIP3      3366            0.0000000000
     32350      3558  TIP3      H2             -7.6526713251       35.7586827553       41.1893770618  TIP3      3366            0.0000000000
     32351      3559  TIP3      OH2           -10.5768885325      -36.5299483016       42.0709512423  TIP3      3367            0.0000000000
     32352      3559  TIP3      H1            -10.5970254924      -35.7663635858       41.4694927212  TIP3      3367            0.0000000000
     32353      3559  TIP3      H2            -10.9352700876      -36.1852105896       42.8875931883  TIP3      3367            0.0000000000
     32354      3560  TIP3      OH2           -12.0882351706       23.0518339226       41.4003492976  TIP3      3368            0.0000000000
     32355      3560  TIP3      H1            -12.2468163873       23.9123673431       41.7977256963  TIP3      3368            0.0000000000
     32356      3560  TIP3      H2            -11.1945644723       22.9070186255       41.7593997000  TIP3      3368            0.0000000000
     32357      3561  TIP3      OH2           -13.7367449062       33.6756906881       40.6361635798  TIP3      3369            0.0000000000
     32358      3561  TIP3      H1            -13.0814366081       34.3118714853       40.9600334312  TIP3      3369            0.0000000000
     32359      3561  TIP3      H2            -13.1900944553       33.1872083817       39.9905999210  TIP3      3369            0.0000000000
     32360      3562  TIP3      OH2           -15.3935101446       26.3192751638       39.7987045556  TIP3      3370            0.0000000000
     32361      3562  TIP3      H1            -15.4127523099       27.2775760639       39.9983831384  TIP3      3370            0.0000000000
     32362      3562  TIP3      H2            -16.2845475253       26.1161292420       39.5133478258  TIP3      3370            0.0000000000
     32363      3563  TIP3      OH2            -7.5868453743       36.0550159530       39.0172000482  TIP3      3371            0.0000000000
     32364      3563  TIP3      H1             -8.3104542079       35.4212721089       39.1922988372  TIP3      3371            0.0000000000
     32365      3563  TIP3      H2             -6.8734435336       35.5118329235       38.6883307247  TIP3      3371            0.0000000000
     32366      3564  TIP3      OH2            -2.7778777526       35.8667999997       39.4016161604  TIP3      3372            0.0000000000
     32367      3564  TIP3      H1             -2.6745542424       34.9381104166       39.6299076429  TIP3      3372            0.0000000000
     32368      3564  TIP3      H2             -2.2224553994       36.0014226396       38.6097561754  TIP3      3372            0.0000000000
     32369      3565  TIP3      OH2           -12.1508739686       31.7486538939       38.9925506521  TIP3      3373            0.0000000000
     32370      3565  TIP3      H1            -11.9821601026       30.9915123191       39.5711115887  TIP3      3373            0.0000000000
     32371      3565  TIP3      H2            -11.4029454557       31.6692279737       38.3686061137  TIP3      3373            0.0000000000
     32372      3566  TIP3      OH2            -6.6648301385       32.8889796869       38.7754574760  TIP3      3374            0.0000000000
     32373      3566  TIP3      H1             -6.9943109492       33.0042351260       39.6806393044  TIP3      3374            0.0000000000
     32374      3566  TIP3      H2             -6.9223218951       31.9502964046       38.6052206976  TIP3      3374            0.0000000000
     32375      3567  TIP3      OH2           -10.9508269422       29.7668797929       41.3230875555  TIP3      3375            0.0000000000
     32376      3567  TIP3      H1            -11.4119282835       29.2513180369       42.0011727148  TIP3      3375            0.0000000000
     32377      3567  TIP3      H2            -10.6607864790       29.0882692421       40.6800052777  TIP3      3375            0.0000000000
     32378      3568  TIP3      OH2            -9.8744076343       27.9882067648       39.5777140148  TIP3      3376            0.0000000000
     32379      3568  TIP3      H1            -10.0180210354       27.8937263188       38.6104456670  TIP3      3376            0.0000000000
     32380      3568  TIP3      H2             -8.9003742066       28.0850118522       39.6572299824  TIP3      3376            0.0000000000
     32381      3569  TIP3      OH2            -0.5258436182       30.3706562196       39.0771880163  TIP3      3377            0.0000000000
     32382      3569  TIP3      H1             -0.7054245725       29.9733503755       38.2066510598  TIP3      3377            0.0000000000
     32383      3569  TIP3      H2             -0.4552621279       31.3230910652       38.8237603889  TIP3      3377            0.0000000000
     32384      3570  TIP3      OH2           -16.4527049152       33.3287954398       40.1041435369  TIP3      3378            0.0000000000
     32385      3570  TIP3      H1            -15.5086205939       33.4118057805       40.3560736500  TIP3      3378            0.0000000000
     32386      3570  TIP3      H2            -16.3919099267       32.6217731785       39.4288078186  TIP3      3378            0.0000000000
     32387      3571  TIP3      OH2             0.7015573103       29.1185166415       41.1487905718  TIP3      3379            0.0000000000
     32388      3571  TIP3      H1              0.1741680429       29.5302913891       40.4241228706  TIP3      3379            0.0000000000
     32389      3571  TIP3      H2              0.6728334984       29.7801983764       41.8731994751  TIP3      3379            0.0000000000
     32390      3572  TIP3      OH2            -0.9827102975       26.4233116113       39.7819870721  TIP3      3380            0.0000000000
     32391      3572  TIP3      H1             -0.8877775168       27.0749259672       39.0842781359  TIP3      3380            0.0000000000
     32392      3572  TIP3      H2             -1.1569167740       25.5883295907       39.3046868354  TIP3      3380            0.0000000000
     32393      3573  TIP3      OH2            -1.7390639002       23.8469949324       38.8875189973  TIP3      3381            0.0000000000
     32394      3573  TIP3      H1             -1.1407967873       23.4357891404       39.5485078035  TIP3      3381            0.0000000000
     32395      3573  TIP3      H2             -2.5875580467       23.4350279540       39.1271405761  TIP3      3381            0.0000000000
     32396      3574  TIP3      OH2             0.3229737899       22.7127017268       40.4470880768  TIP3      3382            0.0000000000
     32397      3574  TIP3      H1              0.7552622852       21.9751347524       39.9646828304  TIP3      3382            0.0000000000
     32398      3574  TIP3      H2              1.0476693102       23.3548591136       40.5417810915  TIP3      3382            0.0000000000
     32399      3575  TIP3      OH2           -16.0849437430       20.7586597138       41.5012691164  TIP3      3383            0.0000000000
     32400      3575  TIP3      H1            -15.6133978084       21.4115405172       40.9681634710  TIP3      3383            0.0000000000
     32401      3575  TIP3      H2            -16.6731611024       21.3303767157       41.9899714077  TIP3      3383            0.0000000000
     32402      3576  TIP3      OH2           -14.2769527953       22.6954425625       39.9735797040  TIP3      3384            0.0000000000
     32403      3576  TIP3      H1            -13.7662796064       22.0502771597       39.4534894615  TIP3      3384            0.0000000000
     32404      3576  TIP3      H2            -13.6270422631       22.9543488456       40.6595524205  TIP3      3384            0.0000000000
     32405      3577  TIP3      OH2            11.7616632111       27.8667399874       40.1303587607  TIP3      3385            0.0000000000
     32406      3577  TIP3      H1             12.4821543334       27.9082649050       40.8000150288  TIP3      3385            0.0000000000
     32407      3577  TIP3      H2             12.1304492150       27.1801783494       39.5632213354  TIP3      3385            0.0000000000
     32408      3578  TIP3      OH2            13.9676034382       28.6089144190       41.6524152509  TIP3      3386            0.0000000000
     32409      3578  TIP3      H1             14.4246639846       28.8680882928       42.4831309343  TIP3      3386            0.0000000000
     32410      3578  TIP3      H2             14.3647828861       29.2005309740       40.9796458857  TIP3      3386            0.0000000000
     32411      3579  TIP3      OH2            17.7552538019       20.4903605425       41.6830031590  TIP3      3387            0.0000000000
     32412      3579  TIP3      H1             16.8145608768       20.5914901967       41.8715892668  TIP3      3387            0.0000000000
     32413      3579  TIP3      H2             17.9574931788       21.3277576570       41.2319149229  TIP3      3387            0.0000000000
     32414      3580  TIP3      OH2            18.9421299433       34.8207169653       39.9378987717  TIP3      3388            0.0000000000
     32415      3580  TIP3      H1             19.0129390657       35.7659668582       40.1551168697  TIP3      3388            0.0000000000
     32416      3580  TIP3      H2             19.8694513867       34.5330000183       39.9876392899  TIP3      3388            0.0000000000
     32417      3581  TIP3      OH2            15.4192801189       29.8717448689       39.5426896323  TIP3      3389            0.0000000000
     32418      3581  TIP3      H1             15.4764038413       29.5365846520       38.6029033514  TIP3      3389            0.0000000000
     32419      3581  TIP3      H2             16.3422543486       30.1735547377       39.5654611726  TIP3      3389            0.0000000000
     32420      3582  TIP3      OH2            11.0590600269       23.6536143444       40.0715283507  TIP3      3390            0.0000000000
     32421      3582  TIP3      H1             10.7845096633       23.6762254510       40.9967719091  TIP3      3390            0.0000000000
     32422      3582  TIP3      H2             10.7770364238       22.7723162169       39.7779250892  TIP3      3390            0.0000000000
     32423      3583  TIP3      OH2             7.9055742187       24.0671832953       39.1909596971  TIP3      3391            0.0000000000
     32424      3583  TIP3      H1              7.4331217157       23.6605614874       39.9462813219  TIP3      3391            0.0000000000
     32425      3583  TIP3      H2              7.1965754119       24.4823039946       38.6792981784  TIP3      3391            0.0000000000
     32426      3584  TIP3      OH2             2.4052565546       24.4387978747       41.5677338005  TIP3      3392            0.0000000000
     32427      3584  TIP3      H1              2.9541628459       25.1101810514       41.1126626411  TIP3      3392            0.0000000000
     32428      3584  TIP3      H2              1.7674296123       25.0650124289       41.9702381588  TIP3      3392            0.0000000000
     32429      3585  TIP3      OH2             6.5859978331       26.8020106620       40.6210062702  TIP3      3393            0.0000000000
     32430      3585  TIP3      H1              6.0300074914       26.4895798423       39.8842002457  TIP3      3393            0.0000000000
     32431      3585  TIP3      H2              7.3808737759       27.0703476678       40.1347791080  TIP3      3393            0.0000000000
     32432      3586  TIP3      OH2            13.7848307193       24.2536168397       40.6535859810  TIP3      3394            0.0000000000
     32433      3586  TIP3      H1             12.8233783758       24.3710530857       40.5978403067  TIP3      3394            0.0000000000
     32434      3586  TIP3      H2             14.1024456759       25.0722351807       41.0871828114  TIP3      3394            0.0000000000
     32435      3587  TIP3      OH2            14.4913143278       26.1493917167       42.3706861831  TIP3      3395            0.0000000000
     32436      3587  TIP3      H1             15.4057366771       26.0056710885       42.6580461356  TIP3      3395            0.0000000000
     32437      3587  TIP3      H2             14.5620475512       26.9351493956       41.7997656362  TIP3      3395            0.0000000000
     32438      3588  TIP3      OH2            12.0336689628       32.8446243766       41.5646793928  TIP3      3396            0.0000000000
     32439      3588  TIP3      H1             11.6812329985       33.6964326209       41.8625014404  TIP3      3396            0.0000000000
     32440      3588  TIP3      H2             11.3153134173       32.2436650331       41.7804820899  TIP3      3396            0.0000000000
     32441      3589  TIP3      OH2            19.5691657133       26.3408878821       41.9833545479  TIP3      3397            0.0000000000
     32442      3589  TIP3      H1             18.8977475003       25.9908998239       41.3318546168  TIP3      3397            0.0000000000
     32443      3589  TIP3      H2             19.5232587289       27.2803571427       41.7298529333  TIP3      3397            0.0000000000
     32444      3590  TIP3      OH2             3.1692193710       29.1229900884       40.2268628985  TIP3      3398            0.0000000000
     32445      3590  TIP3      H1              3.7663368273       29.7242417988       40.7291081433  TIP3      3398            0.0000000000
     32446      3590  TIP3      H2              2.2901569147       29.3980357026       40.5421709330  TIP3      3398            0.0000000000
     32447      3591  TIP3      OH2            15.1398183018       33.0737283872       40.2975668691  TIP3      3399            0.0000000000
     32448      3591  TIP3      H1             15.4375758497       32.7501293525       41.1523938457  TIP3      3399            0.0000000000
     32449      3591  TIP3      H2             14.1732828437       33.0113993217       40.4247531009  TIP3      3399            0.0000000000
     32450      3592  TIP3      OH2             9.2489362759       34.2179074538       38.8102617129  TIP3      3400            0.0000000000
     32451      3592  TIP3      H1              9.3436728463       33.4330468863       38.2520313744  TIP3      3400            0.0000000000
     32452      3592  TIP3      H2              8.8583991536       33.8191893784       39.6230046693  TIP3      3400            0.0000000000
     32453      3593  TIP3      OH2             8.0150963876       33.7233132845       41.2737512188  TIP3      3401            0.0000000000
     32454      3593  TIP3      H1              8.2567616547       33.2625742567       42.0901993939  TIP3      3401            0.0000000000
     32455      3593  TIP3      H2              8.1409673701       34.6461642100       41.5529256589  TIP3      3401            0.0000000000
     32456      3594  TIP3      OH2             4.4282476928       31.0393933745       41.6577668794  TIP3      3402            0.0000000000
     32457      3594  TIP3      H1              3.8827074502       31.3429201807       42.3784319967  TIP3      3402            0.0000000000
     32458      3594  TIP3      H2              5.0823970914       31.7619913571       41.5333877031  TIP3      3402            0.0000000000
     32459      3595  TIP3      OH2            10.4783762025       35.1509794679       41.4005640200  TIP3      3403            0.0000000000
     32460      3595  TIP3      H1              9.9004258920       35.7904310153       41.8599061592  TIP3      3403            0.0000000000
     32461      3595  TIP3      H2             11.2160599672       35.7603349686       41.1966939720  TIP3      3403            0.0000000000
     32462      3596  TIP3      OH2             8.2822552756      -36.5390211164       42.0713950961  TIP3      3404            0.0000000000
     32463      3596  TIP3      H1              8.2731103985      -35.7811900002       41.4648614520  TIP3      3404            0.0000000000
     32464      3596  TIP3      H2              7.9254814997      -36.1932892990       42.8882388944  TIP3      3404            0.0000000000
     32465      3597  TIP3      OH2             6.7676527737       23.0521705585       41.3997909890  TIP3      3405            0.0000000000
     32466      3597  TIP3      H1              6.6091960892       23.9125180534       41.7978110347  TIP3      3405            0.0000000000
     32467      3597  TIP3      H2              7.6611429683       22.9070970063       41.7592853112  TIP3      3405            0.0000000000
     32468      3598  TIP3      OH2             5.1139642431       33.6947111136       40.6298974040  TIP3      3406            0.0000000000
     32469      3598  TIP3      H1              5.7914168334       34.3048614881       40.9576296106  TIP3      3406            0.0000000000
     32470      3598  TIP3      H2              5.6574627884       33.1902342608       39.9931055821  TIP3      3406            0.0000000000
     32471      3599  TIP3      OH2             3.4629602561       26.3190425469       39.7994731405  TIP3      3407            0.0000000000
     32472      3599  TIP3      H1              3.4456591889       27.2781027858       39.9987327345  TIP3      3407            0.0000000000
     32473      3599  TIP3      H2              2.5714943919       26.1165182943       39.5138472243  TIP3      3407            0.0000000000
     32474      3600  TIP3      OH2            11.2671569523       36.0549961173       39.0121849428  TIP3      3408            0.0000000000
     32475      3600  TIP3      H1             10.5542416852       35.4095375706       39.1871497746  TIP3      3408            0.0000000000
     32476      3600  TIP3      H2             11.9911126451       35.5182899213       38.6937133626  TIP3      3408            0.0000000000
     32477      3601  TIP3      OH2            15.9911628185       35.8334364285       39.3289375340  TIP3      3409            0.0000000000
     32478      3601  TIP3      H1             16.2233685934       34.9651215036       39.6642237675  TIP3      3409            0.0000000000
     32479      3601  TIP3      H2             16.6816161243       36.0266595618       38.6681776494  TIP3      3409            0.0000000000
     32480      3602  TIP3      OH2             6.7044856877       31.7488391021       38.9929425381  TIP3      3410            0.0000000000
     32481      3602  TIP3      H1              6.8740126422       30.9916691150       39.5710718476  TIP3      3410            0.0000000000
     32482      3602  TIP3      H2              7.4528364764       31.6697973478       38.3688760239  TIP3      3410            0.0000000000
     32483      3603  TIP3      OH2            12.1867570371       32.8950824327       38.7767343096  TIP3      3411            0.0000000000
     32484      3603  TIP3      H1             11.8634489094       33.0031632787       39.6833894958  TIP3      3411            0.0000000000
     32485      3603  TIP3      H2             11.9372384473       31.9523799617       38.6048628345  TIP3      3411            0.0000000000
     32486      3604  TIP3      OH2             7.9049966024       29.7670946069       41.3234454092  TIP3      3412            0.0000000000
     32487      3604  TIP3      H1              7.4440912881       29.2509495265       42.0010361446  TIP3      3412            0.0000000000
     32488      3604  TIP3      H2              8.1956193813       29.0886700569       40.6802175319  TIP3      3412            0.0000000000
     32489      3605  TIP3      OH2             8.9813996515       27.9883567283       39.5780470186  TIP3      3413            0.0000000000
     32490      3605  TIP3      H1              8.8384399678       27.8934998989       38.6107584615  TIP3      3413            0.0000000000
     32491      3605  TIP3      H2              9.9555662331       28.0849696543       39.6576784491  TIP3      3413            0.0000000000
     32492      3606  TIP3      OH2            18.5069480519       30.7250107543       39.2313765044  TIP3      3414            0.0000000000
     32493      3606  TIP3      H1             18.2226840484       30.0766772663       38.5148912340  TIP3      3414            0.0000000000
     32494      3606  TIP3      H2             18.3982126615       31.5597553662       38.7504343283  TIP3      3414            0.0000000000
     32495      3607  TIP3      OH2             2.3973966188       33.3631628381       40.1135915991  TIP3      3415            0.0000000000
     32496      3607  TIP3      H1              3.3528649192       33.3990537543       40.3475715707  TIP3      3415            0.0000000000
     32497      3607  TIP3      H2              2.4425412906       32.6420506015       39.4440849284  TIP3      3415            0.0000000000
     32498      3608  TIP3      OH2            19.5601388551       29.1066281891       41.1510846818  TIP3      3416            0.0000000000
     32499      3608  TIP3      H1             19.0243847505       29.5009411534       40.4142796323  TIP3      3416            0.0000000000
     32500      3608  TIP3      H2             19.5195560246       29.7807389563       41.8629260029  TIP3      3416            0.0000000000
     32501      3609  TIP3      OH2            17.8871247126       26.0723183418       40.0303577539  TIP3      3417            0.0000000000
     32502      3609  TIP3      H1             17.9260831256       26.8651150510       39.4323039401  TIP3      3417            0.0000000000
     32503      3609  TIP3      H2             17.6656524454       25.4639160002       39.3055035267  TIP3      3417            0.0000000000
     32504      3610  TIP3      OH2            17.1215161982       23.7796200911       38.8668108612  TIP3      3418            0.0000000000
     32505      3610  TIP3      H1             17.7126362171       23.4430250345       39.5603063887  TIP3      3418            0.0000000000
     32506      3610  TIP3      H2             16.2528319353       23.4458533186       39.1222576200  TIP3      3418            0.0000000000
     32507      3611  TIP3      OH2            19.1803300233       22.7052685935       40.4575995280  TIP3      3419            0.0000000000
     32508      3611  TIP3      H1             19.6156455911       21.9771554164       39.9645896730  TIP3      3419            0.0000000000
     32509      3611  TIP3      H2             19.8884890539       23.3712098583       40.5308463184  TIP3      3419            0.0000000000
     32510      3612  TIP3      OH2             2.7708806234       20.7585789014       41.5008473569  TIP3      3420            0.0000000000
     32511      3612  TIP3      H1              3.2428015127       21.4116313353       40.9684120216  TIP3      3420            0.0000000000
     32512      3612  TIP3      H2              2.1829099710       21.3303903182       41.9901633187  TIP3      3420            0.0000000000
     32513      3613  TIP3      OH2             4.5789693044       22.6954029263       39.9735295852  TIP3      3421            0.0000000000
     32514      3613  TIP3      H1              5.0897957137       22.0502958101       39.4535798921  TIP3      3421            0.0000000000
     32515      3613  TIP3      H2              5.2288974781       22.9543355339       40.6595441479  TIP3      3421            0.0000000000
     32516      3614  TIP3      OH2            30.6051258916       27.8726291720       40.1264754881  TIP3      3422            0.0000000000
     32517      3614  TIP3      H1             31.3168245036       27.9028853120       40.8028648106  TIP3      3422            0.0000000000
     32518      3614  TIP3      H2             30.9649216029       27.1769159885       39.5668229346  TIP3      3422            0.0000000000
     32519      3615  TIP3      OH2            32.8128849106       28.6012694117       41.6645815419  TIP3      3423            0.0000000000
     32520      3615  TIP3      H1             33.2619394296       28.8740170323       42.4941149116  TIP3      3423            0.0000000000
     32521      3615  TIP3      H2             33.1864148898       29.2143032400       41.0063750822  TIP3      3423            0.0000000000
     32522      3616  TIP3      OH2            34.3957980700       29.7197623317       39.5545969953  TIP3      3424            0.0000000000
     32523      3616  TIP3      H1             34.3289406910       29.5575084785       38.5827632090  TIP3      3424            0.0000000000
     32524      3616  TIP3      H2             35.1990669092       30.2439427771       39.5854665730  TIP3      3424            0.0000000000
     32525      3617  TIP3      OH2            29.9199086045       23.6522045374       40.0725386168  TIP3      3425            0.0000000000
     32526      3617  TIP3      H1             29.6391749975       23.6766611746       40.9962418228  TIP3      3425            0.0000000000
     32527      3617  TIP3      H2             29.6332456495       22.7739203039       39.7775826632  TIP3      3425            0.0000000000
     32528      3618  TIP3      OH2            26.7614043842       24.0667209747       39.1909454076  TIP3      3426            0.0000000000
     32529      3618  TIP3      H1             26.2889819597       23.6606715700       39.9463951167  TIP3      3426            0.0000000000
     32530      3618  TIP3      H2             26.0526033367       24.4827688611       38.6795177784  TIP3      3426            0.0000000000
     32531      3619  TIP3      OH2            21.2562670456       24.4497237205       41.5563093864  TIP3      3427            0.0000000000
     32532      3619  TIP3      H1             21.7943981125       25.1265022163       41.1003190220  TIP3      3427            0.0000000000
     32533      3619  TIP3      H2             20.6148721510       25.0671246652       41.9697822558  TIP3      3427            0.0000000000
     32534      3620  TIP3      OH2            25.4483041442       26.8007404562       40.6219769395  TIP3      3428            0.0000000000
     32535      3620  TIP3      H1             24.8877572110       26.4893293202       39.8871786924  TIP3      3428            0.0000000000
     32536      3620  TIP3      H2             26.2391205754       27.0715871775       40.1328400892  TIP3      3428            0.0000000000
     32537      3621  TIP3      OH2            32.6546312616       24.2460369209       40.6586500541  TIP3      3429            0.0000000000
     32538      3621  TIP3      H1             31.6886085434       24.3412378601       40.5886176544  TIP3      3429            0.0000000000
     32539      3621  TIP3      H2             32.9149090735       25.0720131191       41.1083057360  TIP3      3429            0.0000000000
     32540      3622  TIP3      OH2            33.3693632579       26.1707146119       42.3571991776  TIP3      3430            0.0000000000
     32541      3622  TIP3      H1             34.2700016184       25.9724357071       42.6255160760  TIP3      3430            0.0000000000
     32542      3622  TIP3      H2             33.4263551878       26.9637586529       41.7981829859  TIP3      3430            0.0000000000
     32543      3623  TIP3      OH2            30.8830361237       32.8417871718       41.5716756634  TIP3      3431            0.0000000000
     32544      3623  TIP3      H1             30.5305627281       33.6986941121       41.8599364303  TIP3      3431            0.0000000000
     32545      3623  TIP3      H2             30.1647885402       32.2420034822       41.7852961104  TIP3      3431            0.0000000000
     32546      3624  TIP3      OH2            22.0318408433       29.1144967300       40.2402811338  TIP3      3432            0.0000000000
     32547      3624  TIP3      H1             22.6172046762       29.7362881383       40.7306620159  TIP3      3432            0.0000000000
     32548      3624  TIP3      H2             21.1422307697       29.3914876539       40.5278043460  TIP3      3432            0.0000000000
     32549      3625  TIP3      OH2            33.9852711885       33.1165417616       40.3357659977  TIP3      3433            0.0000000000
     32550      3625  TIP3      H1             34.2741322645       32.7501367543       41.1719079899  TIP3      3433            0.0000000000
     32551      3625  TIP3      H2             33.0222014025       32.9871345754       40.4200766179  TIP3      3433            0.0000000000
     32552      3626  TIP3      OH2            28.1041743486       34.2175438348       38.8097141403  TIP3      3434            0.0000000000
     32553      3626  TIP3      H1             28.1942225376       33.4281237645       38.2560134300  TIP3      3434            0.0000000000
     32554      3626  TIP3      H2             27.7145768214       33.8206155823       39.6235516809  TIP3      3434            0.0000000000
     32555      3627  TIP3      OH2            26.8743301735       33.7243888362       41.2744303212  TIP3      3435            0.0000000000
     32556      3627  TIP3      H1             27.1125002549       33.2621842703       42.0906826183  TIP3      3435            0.0000000000
     32557      3627  TIP3      H2             26.9974881877       34.6468546649       41.5534763464  TIP3      3435            0.0000000000
     32558      3628  TIP3      OH2            23.2761364635       31.0488326671       41.6622571524  TIP3      3436            0.0000000000
     32559      3628  TIP3      H1             22.7287227702       31.3760527686       42.3703789758  TIP3      3436            0.0000000000
     32560      3628  TIP3      H2             23.9382669565       31.7612641140       41.5303111447  TIP3      3436            0.0000000000
     32561      3629  TIP3      OH2            29.3456458591       35.1510187863       41.3909671126  TIP3      3437            0.0000000000
     32562      3629  TIP3      H1             28.7630233011       35.7860950288       41.8562266774  TIP3      3437            0.0000000000
     32563      3629  TIP3      H2             30.0803651014       35.7631124781       41.1987381644  TIP3      3437            0.0000000000
     32564      3630  TIP3      OH2            27.1354130966      -36.5401721339       42.0706152801  TIP3      3438            0.0000000000
     32565      3630  TIP3      H1             27.1266240382      -35.7802404264       41.4663311168  TIP3      3438            0.0000000000
     32566      3630  TIP3      H2             26.7833136654      -36.1932715383       42.8892942439  TIP3      3438            0.0000000000
     32567      3631  TIP3      OH2            25.6230583822       23.0513759156       41.4012972597  TIP3      3439            0.0000000000
     32568      3631  TIP3      H1             25.4650231461       23.9124768225       41.7976258087  TIP3      3439            0.0000000000
     32569      3631  TIP3      H2             26.5171593525       22.9072577816       41.7595589978  TIP3      3439            0.0000000000
     32570      3632  TIP3      OH2            23.9745904158       33.6758320552       40.6365915756  TIP3      3440            0.0000000000
     32571      3632  TIP3      H1             24.6307705658       34.3115755009       40.9596591738  TIP3      3440            0.0000000000
     32572      3632  TIP3      H2             24.5186065275       33.1876268948       39.9890528481  TIP3      3440            0.0000000000
     32573      3633  TIP3      OH2            22.3229886107       26.3241589397       39.7872260516  TIP3      3441            0.0000000000
     32574      3633  TIP3      H1             22.2914470779       27.2832150613       39.9905342699  TIP3      3441            0.0000000000
     32575      3633  TIP3      H2             21.4251009193       26.1213205762       39.5116462007  TIP3      3441            0.0000000000
     32576      3634  TIP3      OH2            30.1289306649       36.0576408374       39.0086102444  TIP3      3442            0.0000000000
     32577      3634  TIP3      H1             29.4062181209       35.4219647712       39.1923059248  TIP3      3442            0.0000000000
     32578      3634  TIP3      H2             30.8473968741       35.5083805736       38.6970666286  TIP3      3442            0.0000000000
     32579      3635  TIP3      OH2            35.0159090299       35.8862575777       39.4699821912  TIP3      3443            0.0000000000
     32580      3635  TIP3      H1             34.9930945226       34.9190161524       39.6075018168  TIP3      3443            0.0000000000
     32581      3635  TIP3      H2             35.4745458297       35.9930628286       38.5996903187  TIP3      3443            0.0000000000
     32582      3636  TIP3      OH2            25.5602461726       31.7491481846       38.9921133776  TIP3      3444            0.0000000000
     32583      3636  TIP3      H1             25.7291123149       30.9918715915       39.5705582929  TIP3      3444            0.0000000000
     32584      3636  TIP3      H2             26.3092678360       31.6686682103       38.3687954363  TIP3      3444            0.0000000000
     32585      3637  TIP3      OH2            31.0339681503       32.8951820787       38.7669657829  TIP3      3445            0.0000000000
     32586      3637  TIP3      H1             30.7052895037       33.0090712461       39.6733238424  TIP3      3445            0.0000000000
     32587      3637  TIP3      H2             30.7825668242       31.9509224891       38.6040441146  TIP3      3445            0.0000000000
     32588      3638  TIP3      OH2            26.7612150228       29.7670118396       41.3233145739  TIP3      3446            0.0000000000
     32589      3638  TIP3      H1             26.2998885185       29.2511819040       42.0009572305  TIP3      3446            0.0000000000
     32590      3638  TIP3      H2             27.0511580281       29.0883667521       40.6798825073  TIP3      3446            0.0000000000
     32591      3639  TIP3      OH2            27.8328679942       27.9894337214       39.5783293311  TIP3      3447            0.0000000000
     32592      3639  TIP3      H1             27.6935443954       27.8938636884       38.6106798164  TIP3      3447            0.0000000000
     32593      3639  TIP3      H2             28.8086379152       28.0851163407       39.6585626094  TIP3      3447            0.0000000000
     32594      3640  TIP3      OH2            21.2584158100       33.3315033997       40.1050163771  TIP3      3448            0.0000000000
     32595      3640  TIP3      H1             22.2033402457       33.4102878212       40.3546552455  TIP3      3448            0.0000000000
     32596      3640  TIP3      H2             21.3105510657       32.6197200973       39.4336735902  TIP3      3448            0.0000000000
     32597      3641  TIP3      OH2            35.9825401003       23.7533726985       38.8542348980  TIP3      3449            0.0000000000
     32598      3641  TIP3      H1             36.5531134100       23.4741430972       39.5762342885  TIP3      3449            0.0000000000
     32599      3641  TIP3      H2             35.0992486961       23.4373517404       39.1216172139  TIP3      3449            0.0000000000
     32600      3642  TIP3      OH2            21.6276914798       20.7580401160       41.5011631038  TIP3      3450            0.0000000000
     32601      3642  TIP3      H1             22.0981897330       21.4115646613       40.9679233317  TIP3      3450            0.0000000000
     32602      3642  TIP3      H2             21.0402727032       21.3277518987       41.9920745265  TIP3      3450            0.0000000000
     32603      3643  TIP3      OH2            23.4351005712       22.6950622317       39.9738074376  TIP3      3451            0.0000000000
     32604      3643  TIP3      H1             23.9456844658       22.0502279700       39.4533695921  TIP3      3451            0.0000000000
     32605      3643  TIP3      H2             24.0852057660       22.9544783520       40.6593764767  TIP3      3451            0.0000000000
     32606      3644  TIP3      OH2           -24.6836389943      -26.4712985102      -35.6907899422  TIP3      3452            0.0000000000
     32607      3644  TIP3      H1            -24.6482796237      -25.4860473034      -35.7501973851  TIP3      3452            0.0000000000
     32608      3644  TIP3      H2            -25.3706388284      -26.6784810827      -36.3377959364  TIP3      3452            0.0000000000
     32609      3645  TIP3      OH2           -25.8086253786      -27.1830670422      -32.2021962708  TIP3      3453            0.0000000000
     32610      3645  TIP3      H1            -25.7999783466      -27.8369219471      -31.4846012037  TIP3      3453            0.0000000000
     32611      3645  TIP3      H2            -26.1136436721      -27.6973144025      -32.9509704000  TIP3      3453            0.0000000000
     32612      3646  TIP3      OH2           -33.4083576449      -27.5258103454      -30.6546999045  TIP3      3454            0.0000000000
     32613      3646  TIP3      H1            -33.3379370093      -28.2219075312      -29.9684919422  TIP3      3454            0.0000000000
     32614      3646  TIP3      H2            -32.6820920868      -26.9395996711      -30.4179401979  TIP3      3454            0.0000000000
     32615      3647  TIP3      OH2           -22.1080475216      -24.2562786708      -33.9291435303  TIP3      3455            0.0000000000
     32616      3647  TIP3      H1            -22.5287723308      -24.9715805440      -33.4421018383  TIP3      3455            0.0000000000
     32617      3647  TIP3      H2            -22.0878056471      -23.5464144992      -33.2595878787  TIP3      3455            0.0000000000
     32618      3648  TIP3      OH2           -32.5202880378      -23.0997337284      -32.1336659328  TIP3      3456            0.0000000000
     32619      3648  TIP3      H1            -32.8397340802      -23.9516088147      -32.4834639123  TIP3      3456            0.0000000000
     32620      3648  TIP3      H2            -31.5615997987      -23.2724854505      -32.1101120902  TIP3      3456            0.0000000000
     32621      3649  TIP3      OH2           -35.6120464850      -29.5229921601      -37.0734171607  TIP3      3457            0.0000000000
     32622      3649  TIP3      H1            -36.0833658466      -28.7270662113      -36.7255403768  TIP3      3457            0.0000000000
     32623      3649  TIP3      H2            -36.3980280990      -30.0666413741      -37.0960646365  TIP3      3457            0.0000000000
     32624      3650  TIP3      OH2           -35.1946249148      -27.3423490275      -34.5681760823  TIP3      3458            0.0000000000
     32625      3650  TIP3      H1            -34.9168373542      -28.1111428248      -34.0475506285  TIP3      3458            0.0000000000
     32626      3650  TIP3      H2            -34.4595836745      -27.1950375927      -35.1742053774  TIP3      3458            0.0000000000
     32627      3651  TIP3      OH2           -24.4448510994      -19.1012607308      -33.1250756751  TIP3      3459            0.0000000000
     32628      3651  TIP3      H1            -24.3587589065      -19.7168207459      -33.9013971916  TIP3      3459            0.0000000000
     32629      3651  TIP3      H2            -25.2645522446      -19.4690916114      -32.7910500010  TIP3      3459            0.0000000000
     32630      3652  TIP3      OH2           -27.4303532678      -24.8170218476      -31.7493265319  TIP3      3460            0.0000000000
     32631      3652  TIP3      H1            -27.0693491149      -25.4268551877      -32.4040536929  TIP3      3460            0.0000000000
     32632      3652  TIP3      H2            -26.6234121640      -24.6324012521      -31.2366028580  TIP3      3460            0.0000000000
     32633      3653  TIP3      OH2           -18.8263259828      -33.1550307288      -31.0094818349  TIP3      3461            0.0000000000
     32634      3653  TIP3      H1            -18.6471304119      -32.5733047129      -30.2352324680  TIP3      3461            0.0000000000
     32635      3653  TIP3      H2            -18.2715443025      -32.7240700035      -31.6755536779  TIP3      3461            0.0000000000
     32636      3654  TIP3      OH2           -24.2473172022      -30.3453554840      -31.4201996141  TIP3      3462            0.0000000000
     32637      3654  TIP3      H1            -24.0874092115      -31.3121972925      -31.4134314643  TIP3      3462            0.0000000000
     32638      3654  TIP3      H2            -24.3392352708      -30.1910066665      -32.3757716863  TIP3      3462            0.0000000000
     32639      3655  TIP3      OH2           -31.0848989248      -32.2274012606      -34.2165566144  TIP3      3463            0.0000000000
     32640      3655  TIP3      H1            -31.0682227724      -31.4078393653      -34.7334563998  TIP3      3463            0.0000000000
     32641      3655  TIP3      H2            -31.5328790213      -32.8361631727      -34.8528517883  TIP3      3463            0.0000000000
     32642      3656  TIP3      OH2           -23.4102589277      -32.1590903144      -35.8218547228  TIP3      3464            0.0000000000
     32643      3656  TIP3      H1            -22.7355153311      -32.4692773620      -35.1704964470  TIP3      3464            0.0000000000
     32644      3656  TIP3      H2            -22.8405035114      -31.6222029800      -36.3988304357  TIP3      3464            0.0000000000
     32645      3657  TIP3      OH2           -34.5426021262      -29.9044017858      -33.5252752482  TIP3      3465            0.0000000000
     32646      3657  TIP3      H1            -33.8252884023      -30.3936367289      -33.0637252778  TIP3      3465            0.0000000000
     32647      3657  TIP3      H2            -34.3842045945      -30.1913808362      -34.4312644801  TIP3      3465            0.0000000000
     32648      3658  TIP3      OH2           -29.2801128073      -28.3097480821      -34.2527948449  TIP3      3466            0.0000000000
     32649      3658  TIP3      H1            -28.8234818027      -28.8080291544      -33.5770950383  TIP3      3466            0.0000000000
     32650      3658  TIP3      H2            -29.9467680189      -28.9218265899      -34.6416263612  TIP3      3466            0.0000000000
     32651      3659  TIP3      OH2           -18.3728394580      -31.7389633046      -28.7402625652  TIP3      3467            0.0000000000
     32652      3659  TIP3      H1            -19.0064476731      -30.9956490317      -28.8385007943  TIP3      3467            0.0000000000
     32653      3659  TIP3      H2            -18.3490782175      -31.8544777827      -27.7823699552  TIP3      3467            0.0000000000
     32654      3660  TIP3      OH2           -32.1939356687      -33.3039308796      -30.1896331841  TIP3      3468            0.0000000000
     32655      3660  TIP3      H1            -32.5317329274      -32.7843277846      -30.9412644510  TIP3      3468            0.0000000000
     32656      3660  TIP3      H2            -32.9057887396      -33.1314586814      -29.5155672788  TIP3      3468            0.0000000000
     32657      3661  TIP3      OH2           -24.8965978663      -23.9142010725      -36.6387801681  TIP3      3469            0.0000000000
     32658      3661  TIP3      H1            -25.2327103866      -24.1481592756      -37.5098178679  TIP3      3469            0.0000000000
     32659      3661  TIP3      H2            -25.2398589751      -22.9770588696      -36.5505609092  TIP3      3469            0.0000000000
     32660      3662  TIP3      OH2           -29.7104628974      -25.7031926547      -29.9056284398  TIP3      3470            0.0000000000
     32661      3662  TIP3      H1            -30.4228526383      -25.0582524943      -29.7167348747  TIP3      3470            0.0000000000
     32662      3662  TIP3      H2            -29.0090786347      -25.1119764020      -30.2176031264  TIP3      3470            0.0000000000
     32663      3663  TIP3      OH2           -21.5841211437      -32.8388186929      -33.8569674390  TIP3      3471            0.0000000000
     32664      3663  TIP3      H1            -21.8332522820      -33.5837258088      -33.2979066477  TIP3      3471            0.0000000000
     32665      3663  TIP3      H2            -20.9283476370      -32.3880851072      -33.2985754886  TIP3      3471            0.0000000000
     32666      3664  TIP3      OH2           -32.6790705654      -31.4698168514      -32.1800603360  TIP3      3472            0.0000000000
     32667      3664  TIP3      H1            -32.0534806170      -30.8113930283      -31.8024047735  TIP3      3472            0.0000000000
     32668      3664  TIP3      H2            -32.1382928115      -31.9222570967      -32.8760945929  TIP3      3472            0.0000000000
     32669      3665  TIP3      OH2           -31.2864915411      -23.7128448172      -29.1073606680  TIP3      3473            0.0000000000
     32670      3665  TIP3      H1            -31.3156991424      -22.7946366537      -29.4473774733  TIP3      3473            0.0000000000
     32671      3665  TIP3      H2            -32.1822198455      -23.7767831417      -28.7042970814  TIP3      3473            0.0000000000
     32672      3666  TIP3      OH2           -35.2272372896      -24.0467162785      -38.3421586651  TIP3      3474            0.0000000000
     32673      3666  TIP3      H1            -35.4104229228      -23.7349340758      -39.2485433957  TIP3      3474            0.0000000000
     32674      3666  TIP3      H2            -35.1116638157      -23.2315678921      -37.8089936291  TIP3      3474            0.0000000000
     32675      3667  TIP3      OH2           -21.5807615616      -22.4191169098      -31.5580194262  TIP3      3475            0.0000000000
     32676      3667  TIP3      H1            -22.5470160020      -22.3067377637      -31.4257285859  TIP3      3475            0.0000000000
     32677      3667  TIP3      H2            -21.3159012657      -21.4978756375      -31.7486918795  TIP3      3475            0.0000000000
     32678      3668  TIP3      OH2           -21.2321883033      -34.1421452805      -30.1153852253  TIP3      3476            0.0000000000
     32679      3668  TIP3      H1            -21.9774349391      -33.5416123094      -30.2557353165  TIP3      3476            0.0000000000
     32680      3668  TIP3      H2            -20.5443375543      -33.7284656127      -30.6799142329  TIP3      3476            0.0000000000
     32681      3669  TIP3      OH2           -28.2722897607      -36.0001554124      -32.7974124523  TIP3      3477            0.0000000000
     32682      3669  TIP3      H1            -28.3558385379      -36.9629839613      -32.7347145435  TIP3      3477            0.0000000000
     32683      3669  TIP3      H2            -29.1348381025      -35.7362514370      -32.4282274260  TIP3      3477            0.0000000000
     32684      3670  TIP3      OH2           -23.3122818871      -20.6585196311      -34.9603921394  TIP3      3478            0.0000000000
     32685      3670  TIP3      H1            -22.8941710153      -21.3527001908      -35.4937452992  TIP3      3478            0.0000000000
     32686      3670  TIP3      H2            -22.9425607873      -19.8386913086      -35.3444449455  TIP3      3478            0.0000000000
     32687      3671  TIP3      OH2           -22.0710057364      -22.7287635506      -36.4717414670  TIP3      3479            0.0000000000
     32688      3671  TIP3      H1            -22.4154358283      -23.4106826574      -37.0721498210  TIP3      3479            0.0000000000
     32689      3671  TIP3      H2            -22.0917116425      -23.1927452967      -35.6132203617  TIP3      3479            0.0000000000
     32690      3672  TIP3      OH2           -20.4902196553      -24.1172591535      -27.9559655834  TIP3      3480            0.0000000000
     32691      3672  TIP3      H1            -20.3452457005      -24.7635889242      -28.6824364226  TIP3      3480            0.0000000000
     32692      3672  TIP3      H2            -20.2970430534      -23.2666031464      -28.3883949016  TIP3      3480            0.0000000000
     32693      3673  TIP3      OH2           -26.0224414580      -27.2649113920      -38.1985935910  TIP3      3481            0.0000000000
     32694      3673  TIP3      H1            -26.6809202922      -26.6343263545      -38.5622136123  TIP3      3481            0.0000000000
     32695      3673  TIP3      H2            -25.3010888264      -27.1346063379      -38.8520143053  TIP3      3481            0.0000000000
     32696      3674  TIP3      OH2           -25.9604389674      -28.6944256717      -41.1137701307  TIP3      3482            0.0000000000
     32697      3674  TIP3      H1            -25.2228451271      -28.6887351053      -40.4842796008  TIP3      3482            0.0000000000
     32698      3674  TIP3      H2            -25.6320882221      -29.3317429758      -41.7581237878  TIP3      3482            0.0000000000
     32699      3675  TIP3      OH2           -18.6061254335      -27.8045902949      -29.9099617851  TIP3      3483            0.0000000000
     32700      3675  TIP3      H1            -19.2645003606      -27.0832670926      -29.8690695431  TIP3      3483            0.0000000000
     32701      3675  TIP3      H2            -18.1191605602      -27.5742223707      -30.7213205177  TIP3      3483            0.0000000000
     32702      3676  TIP3      OH2           -22.5641831141      -27.0080259774      -37.2562347933  TIP3      3484            0.0000000000
     32703      3676  TIP3      H1            -23.2970150441      -26.7407777868      -36.6560885752  TIP3      3484            0.0000000000
     32704      3676  TIP3      H2            -22.0897934212      -27.6881554387      -36.7441984013  TIP3      3484            0.0000000000
     32705      3677  TIP3      OH2           -22.6298630234      -28.8494856456      -28.1512975966  TIP3      3485            0.0000000000
     32706      3677  TIP3      H1            -22.6159126956      -28.0300789241      -27.6282162882  TIP3      3485            0.0000000000
     32707      3677  TIP3      H2            -23.2557330863      -28.5535011192      -28.8444775167  TIP3      3485            0.0000000000
     32708      3678  TIP3      OH2           -30.9100993162      -26.3409867874      -35.3610446695  TIP3      3486            0.0000000000
     32709      3678  TIP3      H1            -31.2745431529      -26.7297806179      -36.1944956452  TIP3      3486            0.0000000000
     32710      3678  TIP3      H2            -30.3225006513      -27.0474832906      -35.0288565640  TIP3      3486            0.0000000000
     32711      3679  TIP3      OH2           -29.6495165049      -23.0066895807      -32.6495966990  TIP3      3487            0.0000000000
     32712      3679  TIP3      H1            -29.6216651770      -23.4849843797      -33.4879166308  TIP3      3487            0.0000000000
     32713      3679  TIP3      H2            -28.8364881807      -23.3252040954      -32.2187378897  TIP3      3487            0.0000000000
     32714      3680  TIP3      OH2           -30.5539239968      -27.6305986940      -31.7051995250  TIP3      3488            0.0000000000
     32715      3680  TIP3      H1            -30.0433932782      -27.4446374353      -32.4997228380  TIP3      3488            0.0000000000
     32716      3680  TIP3      H2            -30.2459116878      -26.9324730149      -31.0770786414  TIP3      3488            0.0000000000
     32717      3681  TIP3      OH2           -24.1919964434      -22.0460011151      -30.9701292365  TIP3      3489            0.0000000000
     32718      3681  TIP3      H1            -24.4865753652      -21.3982088062      -30.3238045496  TIP3      3489            0.0000000000
     32719      3681  TIP3      H2            -24.4563549367      -22.8982396548      -30.5498501703  TIP3      3489            0.0000000000
     32720      3682  TIP3      OH2           -29.6726566804      -23.1990142576      -26.9719473477  TIP3      3490            0.0000000000
     32721      3682  TIP3      H1            -30.0478057006      -22.4079652657      -26.5366942039  TIP3      3490            0.0000000000
     32722      3682  TIP3      H2            -30.3270401332      -23.3707870720      -27.6898021073  TIP3      3490            0.0000000000
     32723      3683  TIP3      OH2           -23.6841465418      -27.8232446499      -39.5990721602  TIP3      3491            0.0000000000
     32724      3683  TIP3      H1            -23.1302387453      -27.6351565420      -38.8011834135  TIP3      3491            0.0000000000
     32725      3683  TIP3      H2            -23.2656805731      -27.2916983806      -40.3023835915  TIP3      3491            0.0000000000
     32726      3684  TIP3      OH2           -32.7325104198      -27.0168865615      -27.7689607459  TIP3      3492            0.0000000000
     32727      3684  TIP3      H1            -32.6824239282      -26.3164739841      -27.1230069793  TIP3      3492            0.0000000000
     32728      3684  TIP3      H2            -33.6506373354      -26.9184271259      -28.0890006629  TIP3      3492            0.0000000000
     32729      3685  TIP3      OH2           -25.9868202974      -21.5872056240      -36.2744023127  TIP3      3493            0.0000000000
     32730      3685  TIP3      H1            -25.5915385085      -21.0813607410      -35.5361007481  TIP3      3493            0.0000000000
     32731      3685  TIP3      H2            -26.5124649285      -20.7944126323      -36.5157297184  TIP3      3493            0.0000000000
     32732      3686  TIP3      OH2           -31.4131865325      -21.1921696935      -26.2820671451  TIP3      3494            0.0000000000
     32733      3686  TIP3      H1            -31.4817838470      -21.2409014900      -27.2529122047  TIP3      3494            0.0000000000
     32734      3686  TIP3      H2            -32.3457500127      -21.2424654153      -25.9982455462  TIP3      3494            0.0000000000
     32735      3687  TIP3      OH2           -19.9676171603      -35.9135832075      -39.8875634023  TIP3      3495            0.0000000000
     32736      3687  TIP3      H1            -20.8645932695      -35.8954372615      -39.4929110820  TIP3      3495            0.0000000000
     32737      3687  TIP3      H2            -19.7605550264      -35.0392202353      -40.2122749655  TIP3      3495            0.0000000000
     32738      3688  TIP3      OH2           -31.9361018544      -27.3344239018      -37.7421556180  TIP3      3496            0.0000000000
     32739      3688  TIP3      H1            -32.2288317998      -26.5579814414      -38.2608770871  TIP3      3496            0.0000000000
     32740      3688  TIP3      H2            -32.6169229985      -27.9786612980      -37.9374543091  TIP3      3496            0.0000000000
     32741      3689  TIP3      OH2           -18.8539771286      -21.7505041163      -41.3397128440  TIP3      3497            0.0000000000
     32742      3689  TIP3      H1            -18.7260539575      -20.7916130266      -41.2134693712  TIP3      3497            0.0000000000
     32743      3689  TIP3      H2            -17.9228775799      -22.0274325589      -41.4086385244  TIP3      3497            0.0000000000
     32744      3690  TIP3      OH2           -35.2968946239      -25.0387477110      -29.1089452131  TIP3      3498            0.0000000000
     32745      3690  TIP3      H1            -36.0735828731      -24.9225843279      -29.6965526269  TIP3      3498            0.0000000000
     32746      3690  TIP3      H2            -35.6859280557      -25.8104430887      -28.6354140690  TIP3      3498            0.0000000000
     32747      3691  TIP3      OH2           -35.8332176881      -21.9495821615      -32.3264046191  TIP3      3499            0.0000000000
     32748      3691  TIP3      H1            -34.9930127085      -22.3203855072      -32.0499103088  TIP3      3499            0.0000000000
     32749      3691  TIP3      H2            -36.1129352083      -21.4540580668      -31.5430300132  TIP3      3499            0.0000000000
     32750      3692  TIP3      OH2           -17.8939142355      -21.4546074923      -26.4037149006  TIP3      3500            0.0000000000
     32751      3692  TIP3      H1            -17.9912007412      -22.4167916370      -26.3901378988  TIP3      3500            0.0000000000
     32752      3692  TIP3      H2            -18.7543513923      -21.2081665654      -25.9737787560  TIP3      3500            0.0000000000
     32753      3693  TIP3      OH2           -26.9392651067      -21.9016632309      -27.5536958167  TIP3      3501            0.0000000000
     32754      3693  TIP3      H1            -26.8731562527      -21.0878261969      -27.0007128509  TIP3      3501            0.0000000000
     32755      3693  TIP3      H2            -27.7924661055      -22.2813992343      -27.2704021444  TIP3      3501            0.0000000000
     32756      3694  TIP3      OH2           -26.6900651896      -18.0754205638      -37.9706052436  TIP3      3502            0.0000000000
     32757      3694  TIP3      H1            -26.5470107473      -18.1348979477      -38.9172707043  TIP3      3502            0.0000000000
     32758      3694  TIP3      H2            -26.4475649653      -17.1890986761      -37.6354876247  TIP3      3502            0.0000000000
     32759      3695  TIP3      OH2           -32.8537436708      -19.2967707556      -35.8996880595  TIP3      3503            0.0000000000
     32760      3695  TIP3      H1            -32.7117446837      -19.7132389886      -35.0234490687  TIP3      3503            0.0000000000
     32761      3695  TIP3      H2            -33.6802660007      -19.7332537903      -36.1510796712  TIP3      3503            0.0000000000
     32762      3696  TIP3      OH2           -23.4559880542      -18.9727359053      -40.7504085716  TIP3      3504            0.0000000000
     32763      3696  TIP3      H1            -22.9857961304      -19.7347197462      -41.1639097203  TIP3      3504            0.0000000000
     32764      3696  TIP3      H2            -23.3982597953      -19.2158523735      -39.8041544677  TIP3      3504            0.0000000000
     32765      3697  TIP3      OH2           -23.7470738823      -19.0465607994      -37.9837558976  TIP3      3505            0.0000000000
     32766      3697  TIP3      H1            -24.6896922032      -18.9501366328      -37.7361717159  TIP3      3505            0.0000000000
     32767      3697  TIP3      H2            -23.5004985410      -19.7559590797      -37.3712583898  TIP3      3505            0.0000000000
     32768      3698  TIP3      OH2           -20.7253285562      -29.9978611746      -25.9287961850  TIP3      3506            0.0000000000
     32769      3698  TIP3      H1            -21.2077975856      -29.5420712760      -26.6359931785  TIP3      3506            0.0000000000
     32770      3698  TIP3      H2            -20.7395384304      -30.9229095002      -26.2166329518  TIP3      3506            0.0000000000
     32771      3699  TIP3      OH2           -33.5689521655      -23.5554805777      -27.8508727093  TIP3      3507            0.0000000000
     32772      3699  TIP3      H1            -33.4275817855      -23.9299807180      -26.9809770962  TIP3      3507            0.0000000000
     32773      3699  TIP3      H2            -34.4239653269      -23.9506736155      -28.1490696582  TIP3      3507            0.0000000000
     32774      3700  TIP3      OH2           -30.9020338045      -35.0971308099      -31.9005184681  TIP3      3508            0.0000000000
     32775      3700  TIP3      H1            -31.7874331978      -35.2515418734      -32.3137253358  TIP3      3508            0.0000000000
     32776      3700  TIP3      H2            -31.0715181082      -34.2532019835      -31.4807742992  TIP3      3508            0.0000000000
     32777      3701  TIP3      OH2           -26.3014277783      -35.4203672263      -28.5559028916  TIP3      3509            0.0000000000
     32778      3701  TIP3      H1            -25.8698979891      -35.8231549447      -27.8042708676  TIP3      3509            0.0000000000
     32779      3701  TIP3      H2            -27.2516173598      -35.5342907292      -28.3879937884  TIP3      3509            0.0000000000
     32780      3702  TIP3      OH2           -22.9799389959      -31.6378579900      -27.6761180488  TIP3      3510            0.0000000000
     32781      3702  TIP3      H1            -23.5611043895      -31.7929873684      -26.8944247521  TIP3      3510            0.0000000000
     32782      3702  TIP3      H2            -23.1557359091      -30.7153804035      -27.9370981140  TIP3      3510            0.0000000000
     32783      3703  TIP3      OH2           -22.1554949897      -26.7355932359      -41.7768929468  TIP3      3511            0.0000000000
     32784      3703  TIP3      H1            -22.1439263964      -26.9254839673      -42.7324392895  TIP3      3511            0.0000000000
     32785      3703  TIP3      H2            -21.2858304159      -26.3097114160      -41.6707294319  TIP3      3511            0.0000000000
     32786      3704  TIP3      OH2           -26.6221085364      -32.8875766882      -41.2440044747  TIP3      3512            0.0000000000
     32787      3704  TIP3      H1            -26.9279866960      -32.9275540468      -40.3203854674  TIP3      3512            0.0000000000
     32788      3704  TIP3      H2            -26.8852853755      -33.7633613443      -41.5409545649  TIP3      3512            0.0000000000
     32789      3705  TIP3      OH2           -30.8251859891      -30.1453483202      -30.7312004067  TIP3      3513            0.0000000000
     32790      3705  TIP3      H1            -31.5330234175      -30.1589262967      -30.0594207161  TIP3      3513            0.0000000000
     32791      3705  TIP3      H2            -30.8595704381      -29.2177096434      -31.0532355915  TIP3      3513            0.0000000000
     32792      3706  TIP3      OH2           -30.8155058125      -30.0217510204      -35.8424023615  TIP3      3514            0.0000000000
     32793      3706  TIP3      H1            -31.7711827517      -30.2396097398      -35.9743038596  TIP3      3514            0.0000000000
     32794      3706  TIP3      H2            -30.4858037629      -30.3162959552      -36.7159316133  TIP3      3514            0.0000000000
     32795      3707  TIP3      OH2           -25.3696012234      -29.5214321143      -37.0780456389  TIP3      3515            0.0000000000
     32796      3707  TIP3      H1            -25.7249090953      -28.6754146627      -37.4361391262  TIP3      3515            0.0000000000
     32797      3707  TIP3      H2            -24.6574739674      -29.6826555052      -37.7347648023  TIP3      3515            0.0000000000
     32798      3708  TIP3      OH2           -26.2674075907      -29.3149646955      -25.6566220235  TIP3      3516            0.0000000000
     32799      3708  TIP3      H1            -26.7976402339      -30.0783678509      -25.3223045390  TIP3      3516            0.0000000000
     32800      3708  TIP3      H2            -25.4443322270      -29.4273166047      -25.1539990795  TIP3      3516            0.0000000000
     32801      3709  TIP3      OH2           -24.4140600878      -30.0471322739      -34.2335531913  TIP3      3517            0.0000000000
     32802      3709  TIP3      H1            -24.5089910798      -29.4557929155      -34.9942679002  TIP3      3517            0.0000000000
     32803      3709  TIP3      H2            -24.1595730482      -30.8751422992      -34.6892969813  TIP3      3517            0.0000000000
     32804      3710  TIP3      OH2           -33.1745608901      -29.8764649948      -28.9985134968  TIP3      3518            0.0000000000
     32805      3710  TIP3      H1            -33.1637929267      -29.4815126093      -28.1171687208  TIP3      3518            0.0000000000
     32806      3710  TIP3      H2            -33.6674777671      -30.6950164972      -28.8237596876  TIP3      3518            0.0000000000
     32807      3711  TIP3      OH2           -29.6583648932      -32.2647578747      -41.8591215165  TIP3      3519            0.0000000000
     32808      3711  TIP3      H1            -30.1886416137      -32.8916299371      -41.3271368436  TIP3      3519            0.0000000000
     32809      3711  TIP3      H2            -30.2694269841      -31.9337201209      -42.5081862689  TIP3      3519            0.0000000000
     32810      3712  TIP3      OH2           -36.1789636350      -32.4875990485      -35.2329683903  TIP3      3520            0.0000000000
     32811      3712  TIP3      H1            -35.8221631875      -32.7946258962      -34.3672055540  TIP3      3520            0.0000000000
     32812      3712  TIP3      H2            -36.0000813022      -33.2265024051      -35.8008998880  TIP3      3520            0.0000000000
     32813      3713  TIP3      OH2           -35.2519503099      -31.9316804808      -39.7137070575  TIP3      3521            0.0000000000
     32814      3713  TIP3      H1            -34.7188143799      -31.3790960209      -40.2987332002  TIP3      3521            0.0000000000
     32815      3713  TIP3      H2            -35.9697036261      -31.3843452580      -39.4097518002  TIP3      3521            0.0000000000
     32816      3714  TIP3      OH2           -25.1259371808      -28.4437405298      -29.6822157222  TIP3      3522            0.0000000000
     32817      3714  TIP3      H1            -24.7224735127      -29.1316961293      -30.2474367450  TIP3      3522            0.0000000000
     32818      3714  TIP3      H2            -25.5609488699      -28.9722678598      -28.9899226339  TIP3      3522            0.0000000000
     32819      3715  TIP3      OH2           -28.2780801377      -32.2865822249      -34.7714439936  TIP3      3523            0.0000000000
     32820      3715  TIP3      H1            -29.2195161772      -32.5406346003      -34.5671406745  TIP3      3523            0.0000000000
     32821      3715  TIP3      H2            -27.8193893451      -32.7179270801      -34.0206709499  TIP3      3523            0.0000000000
     32822      3716  TIP3      OH2           -33.4735494169      -30.8985388154      -35.9748289077  TIP3      3524            0.0000000000
     32823      3716  TIP3      H1            -34.3595774489      -30.7583288506      -36.3579096620  TIP3      3524            0.0000000000
     32824      3716  TIP3      H2            -33.2031361687      -31.7544247319      -36.3676606475  TIP3      3524            0.0000000000
     32825      3717  TIP3      OH2           -29.8537188149      -30.8510827685      -38.3094680823  TIP3      3525            0.0000000000
     32826      3717  TIP3      H1            -28.8867376194      -30.7705086405      -38.2205706110  TIP3      3525            0.0000000000
     32827      3717  TIP3      H2            -30.0988046296      -30.2099663777      -39.0042614519  TIP3      3525            0.0000000000
     32828      3718  TIP3      OH2           -23.8966196151      -33.2338526904      -31.6037571163  TIP3      3526            0.0000000000
     32829      3718  TIP3      H1            -24.5748975030      -33.1829565056      -30.8936674930  TIP3      3526            0.0000000000
     32830      3718  TIP3      H2            -24.3948041981      -33.5303161610      -32.3768311808  TIP3      3526            0.0000000000
     32831      3719  TIP3      OH2           -31.1592547172      -29.6595596527      -40.7676794207  TIP3      3527            0.0000000000
     32832      3719  TIP3      H1            -31.6641797853      -30.0984317676      -41.4538077407  TIP3      3527            0.0000000000
     32833      3719  TIP3      H2            -30.3000578326      -29.4930862264      -41.1885787609  TIP3      3527            0.0000000000
     32834      3720  TIP3      OH2           -20.6234992567      -17.6392909427      -25.2591903381  TIP3      3528            0.0000000000
     32835      3720  TIP3      H1            -20.4153145991      -17.2110319675      -26.1054938540  TIP3      3528            0.0000000000
     32836      3720  TIP3      H2            -19.9698801589      -17.2544915314      -24.6690321883  TIP3      3528            0.0000000000
     32837      3721  TIP3      OH2           -26.8214896226      -29.7080746679      -32.6650573086  TIP3      3529            0.0000000000
     32838      3721  TIP3      H1            -26.2440222089      -30.2678081167      -33.1966248181  TIP3      3529            0.0000000000
     32839      3721  TIP3      H2            -27.1525319887      -30.3194814175      -31.9781768769  TIP3      3529            0.0000000000
     32840      3722  TIP3      OH2           -32.0654605336      -33.4979761942      -36.5444289081  TIP3      3530            0.0000000000
     32841      3722  TIP3      H1            -32.2958516480      -34.4501635475      -36.4389463178  TIP3      3530            0.0000000000
     32842      3722  TIP3      H2            -31.2445310150      -33.6421079849      -37.0269784430  TIP3      3530            0.0000000000
     32843      3723  TIP3      OH2           -28.3472726111      -31.3027524259      -30.5717127848  TIP3      3531            0.0000000000
     32844      3723  TIP3      H1            -29.2125808599      -30.8725893274      -30.4020745564  TIP3      3531            0.0000000000
     32845      3723  TIP3      H2            -27.8248079187      -31.0437188166      -29.7848990676  TIP3      3531            0.0000000000
     32846      3724  TIP3      OH2           -27.7737251730      -25.1631767266      -38.8022483353  TIP3      3532            0.0000000000
     32847      3724  TIP3      H1            -28.5718644369      -25.6276248311      -39.1369767926  TIP3      3532            0.0000000000
     32848      3724  TIP3      H2            -28.0073471839      -25.0358145317      -37.8632024062  TIP3      3532            0.0000000000
     32849      3725  TIP3      OH2           -20.6080250464      -25.9654805842      -30.0238298774  TIP3      3533            0.0000000000
     32850      3725  TIP3      H1            -20.0394410824      -25.4826552833      -30.6503483323  TIP3      3533            0.0000000000
     32851      3725  TIP3      H2            -21.4662243627      -25.9092929614      -30.4917775634  TIP3      3533            0.0000000000
     32852      3726  TIP3      OH2           -23.9110433260      -32.3619763355      -40.6478878888  TIP3      3534            0.0000000000
     32853      3726  TIP3      H1            -24.8595719951      -32.2183806989      -40.8164431427  TIP3      3534            0.0000000000
     32854      3726  TIP3      H2            -23.6219971972      -31.4887300391      -40.3239412913  TIP3      3534            0.0000000000
     32855      3727  TIP3      OH2           -26.3026116794      -24.9090691289      -27.5925880516  TIP3      3535            0.0000000000
     32856      3727  TIP3      H1            -26.6432434477      -25.3210792504      -26.7898168497  TIP3      3535            0.0000000000
     32857      3727  TIP3      H2            -26.5353060454      -23.9787963655      -27.4852183788  TIP3      3535            0.0000000000
     32858      3728  TIP3      OH2           -23.2092198559      -30.4394857688      -38.9781551858  TIP3      3536            0.0000000000
     32859      3728  TIP3      H1            -22.3113975673      -30.5803878721      -38.6227646276  TIP3      3536            0.0000000000
     32860      3728  TIP3      H2            -23.1269361605      -29.6267117335      -39.5023360662  TIP3      3536            0.0000000000
     32861      3729  TIP3      OH2           -32.6873907965      -25.7764579601      -33.0395086903  TIP3      3537            0.0000000000
     32862      3729  TIP3      H1            -31.9970830180      -25.8469683782      -33.7180215167  TIP3      3537            0.0000000000
     32863      3729  TIP3      H2            -32.5940060772      -26.6175317351      -32.5628203000  TIP3      3537            0.0000000000
     32864      3730  TIP3      OH2           -25.6869778183      -23.6832851246      -39.7624079561  TIP3      3538            0.0000000000
     32865      3730  TIP3      H1            -26.0477801451      -22.8401923116      -39.4123841797  TIP3      3538            0.0000000000
     32866      3730  TIP3      H2            -26.4245024209      -24.3111950573      -39.5878613896  TIP3      3538            0.0000000000
     32867      3731  TIP3      OH2           -35.6970287515      -27.3880087027      -27.7577114716  TIP3      3539            0.0000000000
     32868      3731  TIP3      H1            -35.4725148055      -27.8265785090      -26.9189635235  TIP3      3539            0.0000000000
     32869      3731  TIP3      H2            -36.3057899039      -28.0088500488      -28.1864146003  TIP3      3539            0.0000000000
     32870      3732  TIP3      OH2           -28.6943129107      -27.8053469879      -25.5858866219  TIP3      3540            0.0000000000
     32871      3732  TIP3      H1            -28.9747975600      -28.1112125985      -26.4609454405  TIP3      3540            0.0000000000
     32872      3732  TIP3      H2            -27.7640488828      -28.1133354383      -25.5698539303  TIP3      3540            0.0000000000
     32873      3733  TIP3      OH2           -23.9996342425      -22.4936757307      -27.6267329067  TIP3      3541            0.0000000000
     32874      3733  TIP3      H1            -24.9178632587      -22.2944094029      -27.8692404463  TIP3      3541            0.0000000000
     32875      3733  TIP3      H2            -24.0244013361      -22.1697549262      -26.7049996959  TIP3      3541            0.0000000000
     32876      3734  TIP3      OH2           -18.3656123708      -30.2783229378      -39.1898834735  TIP3      3542            0.0000000000
     32877      3734  TIP3      H1            -18.8527578963      -30.6034506921      -39.9672640212  TIP3      3542            0.0000000000
     32878      3734  TIP3      H2            -18.2074306102      -29.3655463639      -39.5238028441  TIP3      3542            0.0000000000
     32879      3735  TIP3      OH2           -18.3257281911      -24.4323211994      -26.4341787037  TIP3      3543            0.0000000000
     32880      3735  TIP3      H1            -19.2202187679      -24.2106022365      -26.7975196186  TIP3      3543            0.0000000000
     32881      3735  TIP3      H2            -17.7828608177      -24.4812620931      -27.2466285607  TIP3      3543            0.0000000000
     32882      3736  TIP3      OH2           -20.0239953917      -21.4613929358      -38.8497816614  TIP3      3544            0.0000000000
     32883      3736  TIP3      H1            -20.3969496569      -22.2881742488      -38.5176802617  TIP3      3544            0.0000000000
     32884      3736  TIP3      H2            -19.7296360896      -21.6604921316      -39.7583122362  TIP3      3544            0.0000000000
     32885      3737  TIP3      OH2           -22.8189249743      -26.6424576510      -31.7400103373  TIP3      3545            0.0000000000
     32886      3737  TIP3      H1            -23.7606175555      -26.8494372206      -31.8377599534  TIP3      3545            0.0000000000
     32887      3737  TIP3      H2            -22.3965361784      -27.4081346830      -32.1709784531  TIP3      3545            0.0000000000
     32888      3738  TIP3      OH2           -30.3268025889      -22.3212369655      -35.6370003416  TIP3      3546            0.0000000000
     32889      3738  TIP3      H1            -29.8051093894      -21.5237682221      -35.8447736133  TIP3      3546            0.0000000000
     32890      3738  TIP3      H2            -31.1958531175      -22.0651915513      -35.9670448835  TIP3      3546            0.0000000000
     32891      3739  TIP3      OH2           -34.6351523614      -27.4982410342      -41.0982902700  TIP3      3547            0.0000000000
     32892      3739  TIP3      H1            -33.9695856921      -26.8655647989      -40.7283876202  TIP3      3547            0.0000000000
     32893      3739  TIP3      H2            -35.4505121255      -27.1305805996      -40.7396908338  TIP3      3547            0.0000000000
     32894      3740  TIP3      OH2           -28.8783470018      -24.6629334557      -36.1020822042  TIP3      3548            0.0000000000
     32895      3740  TIP3      H1            -29.1664052460      -23.7297269771      -36.0347690067  TIP3      3548            0.0000000000
     32896      3740  TIP3      H2            -29.6396664265      -25.1115724132      -35.6878360848  TIP3      3548            0.0000000000
     32897      3741  TIP3      OH2           -28.4172056400      -20.4632958461      -29.7196677429  TIP3      3549            0.0000000000
     32898      3741  TIP3      H1            -27.9683557796      -19.6589005275      -30.0238840221  TIP3      3549            0.0000000000
     32899      3741  TIP3      H2            -27.8126213619      -20.8012083747      -29.0348638535  TIP3      3549            0.0000000000
     32900      3742  TIP3      OH2           -30.2195799255      -19.6592432987      -36.6037135954  TIP3      3550            0.0000000000
     32901      3742  TIP3      H1            -31.1737180081      -19.5026387088      -36.4475123077  TIP3      3550            0.0000000000
     32902      3742  TIP3      H2            -29.8269997488      -18.8383813860      -36.2419558084  TIP3      3550            0.0000000000
     32903      3743  TIP3      OH2           -24.9085337925      -24.4602951821      -30.0918348155  TIP3      3551            0.0000000000
     32904      3743  TIP3      H1            -25.2434076323      -24.6581445871      -29.1917534773  TIP3      3551            0.0000000000
     32905      3743  TIP3      H2            -24.2723963443      -25.1749171506      -30.2604186599  TIP3      3551            0.0000000000
     32906      3744  TIP3      OH2           -22.6297597990      -23.4342113481      -40.9706639451  TIP3      3552            0.0000000000
     32907      3744  TIP3      H1            -22.3262398858      -23.8687492722      -40.1487048486  TIP3      3552            0.0000000000
     32908      3744  TIP3      H2            -23.5844376624      -23.5910458376      -40.9015795091  TIP3      3552            0.0000000000
     32909      3745  TIP3      OH2           -22.0808286692      -19.9066648533      -27.6211441681  TIP3      3553            0.0000000000
     32910      3745  TIP3      H1            -22.8000617304      -20.3685364863      -28.0831333598  TIP3      3553            0.0000000000
     32911      3745  TIP3      H2            -21.9380274726      -19.1706393296      -28.2511263677  TIP3      3553            0.0000000000
     32912      3746  TIP3      OH2           -18.1071754347      -19.0106212623      -40.7522336812  TIP3      3554            0.0000000000
     32913      3746  TIP3      H1            -17.4089664426      -18.3764426466      -40.9922623887  TIP3      3554            0.0000000000
     32914      3746  TIP3      H2            -18.8263965137      -18.4104030516      -40.4561213743  TIP3      3554            0.0000000000
     32915      3747  TIP3      OH2           -34.0364740789      -32.6589562304      -28.2560800995  TIP3      3555            0.0000000000
     32916      3747  TIP3      H1            -34.9213111853      -32.2707645695      -28.1785593863  TIP3      3555            0.0000000000
     32917      3747  TIP3      H2            -34.1773568544      -33.4964460146      -27.7781161343  TIP3      3555            0.0000000000
     32918      3748  TIP3      OH2           -21.7765820556      -24.7911742429      -38.7856356403  TIP3      3556            0.0000000000
     32919      3748  TIP3      H1            -22.0449962727      -25.5567132790      -38.2363100327  TIP3      3556            0.0000000000
     32920      3748  TIP3      H2            -20.8396630852      -24.7063649534      -38.5500908809  TIP3      3556            0.0000000000
     32921      3749  TIP3      OH2           -34.2829615660      -20.7951577222      -29.8316119899  TIP3      3557            0.0000000000
     32922      3749  TIP3      H1            -34.1469911021      -21.7513237535      -29.7748622627  TIP3      3557            0.0000000000
     32923      3749  TIP3      H2            -34.1623438661      -20.5453184097      -28.9081298208  TIP3      3557            0.0000000000
     32924      3750  TIP3      OH2           -29.6745645150      -22.7715063848      -40.0848192880  TIP3      3558            0.0000000000
     32925      3750  TIP3      H1            -29.4255889120      -23.3244837178      -39.3354823676  TIP3      3558            0.0000000000
     32926      3750  TIP3      H2            -29.6045859612      -21.8518258894      -39.7490028016  TIP3      3558            0.0000000000
     32927      3751  TIP3      OH2           -33.2115721200      -25.5377287373      -39.6356510108  TIP3      3559            0.0000000000
     32928      3751  TIP3      H1            -33.8788329937      -25.1526488601      -39.0236945928  TIP3      3559            0.0000000000
     32929      3751  TIP3      H2            -32.6428721602      -24.7691432313      -39.8237335804  TIP3      3559            0.0000000000
     32930      3752  TIP3      OH2           -25.3071421121      -32.8753261095      -29.2588107284  TIP3      3560            0.0000000000
     32931      3752  TIP3      H1            -24.5832592332      -32.8066334195      -28.6253509039  TIP3      3560            0.0000000000
     32932      3752  TIP3      H2            -25.6684502121      -33.7633256748      -29.0822255011  TIP3      3560            0.0000000000
     32933      3753  TIP3      OH2           -24.5660365322      -33.2654432317      -38.1443600762  TIP3      3561            0.0000000000
     32934      3753  TIP3      H1            -24.3255273140      -32.8155365681      -38.9824067439  TIP3      3561            0.0000000000
     32935      3753  TIP3      H2            -23.9819882040      -32.8150648962      -37.5214151630  TIP3      3561            0.0000000000
     32936      3754  TIP3      OH2           -26.9022879547      -21.1446895425      -39.3911744992  TIP3      3562            0.0000000000
     32937      3754  TIP3      H1            -27.6787637997      -20.5783944499      -39.2504422810  TIP3      3562            0.0000000000
     32938      3754  TIP3      H2            -26.3280662368      -20.5992974642      -39.9529251110  TIP3      3562            0.0000000000
     32939      3755  TIP3      OH2           -27.3620457357      -31.5152235124      -37.3425037871  TIP3      3563            0.0000000000
     32940      3755  TIP3      H1            -26.5348951674      -30.9848305513      -37.3588091673  TIP3      3563            0.0000000000
     32941      3755  TIP3      H2            -27.5763813775      -31.7392813394      -36.4298219958  TIP3      3563            0.0000000000
     32942      3756  TIP3      OH2           -26.7842396180      -30.5193504688      -28.1547681216  TIP3      3564            0.0000000000
     32943      3756  TIP3      H1            -26.6922243298      -29.9583650837      -27.3574099035  TIP3      3564            0.0000000000
     32944      3756  TIP3      H2            -26.1153894259      -31.2081593069      -28.0615542102  TIP3      3564            0.0000000000
     32945      3757  TIP3      OH2           -26.3534401265      -34.4209914213      -36.3593070873  TIP3      3565            0.0000000000
     32946      3757  TIP3      H1            -26.7914852013      -33.7682144913      -35.8040733658  TIP3      3565            0.0000000000
     32947      3757  TIP3      H2            -25.7648258584      -33.9051255791      -36.9573595135  TIP3      3565            0.0000000000
     32948      3758  TIP3      OH2           -29.5441002956      -20.0750363728      -39.3398726342  TIP3      3566            0.0000000000
     32949      3758  TIP3      H1            -29.3186602879      -19.2521558092      -39.8209084866  TIP3      3566            0.0000000000
     32950      3758  TIP3      H2            -29.7278629155      -19.7386019565      -38.4299175575  TIP3      3566            0.0000000000
     32951      3759  TIP3      OH2           -30.7778560341      -33.3981181540      -39.7749346667  TIP3      3567            0.0000000000
     32952      3759  TIP3      H1            -30.9000717831      -32.5073142600      -39.3779127964  TIP3      3567            0.0000000000
     32953      3759  TIP3      H2            -29.8840337329      -33.5855199397      -39.4343083459  TIP3      3567            0.0000000000
     32954      3760  TIP3      OH2           -20.5918772542      -32.6354167298      -27.3136620450  TIP3      3568            0.0000000000
     32955      3760  TIP3      H1            -21.5232063750      -32.3259337199      -27.4383621338  TIP3      3568            0.0000000000
     32956      3760  TIP3      H2            -20.2986126092      -32.6583795043      -28.2422859267  TIP3      3568            0.0000000000
     32957      3761  TIP3      OH2           -22.0050182469      -28.8538655351      -33.3053761210  TIP3      3569            0.0000000000
     32958      3761  TIP3      H1            -22.8149272648      -29.3032586375      -33.5793491605  TIP3      3569            0.0000000000
     32959      3761  TIP3      H2            -21.5144724299      -29.5350220967      -32.7862911265  TIP3      3569            0.0000000000
     32960      3762  TIP3      OH2           -32.5975474647      -22.9029017532      -40.7179109242  TIP3      3570            0.0000000000
     32961      3762  TIP3      H1            -31.9321677374      -22.2868816545      -40.3917598715  TIP3      3570            0.0000000000
     32962      3762  TIP3      H2            -32.0667354209      -23.3950338339      -41.3780883772  TIP3      3570            0.0000000000
     32963      3763  TIP3      OH2           -34.1816998265      -30.1698010689      -41.6412088359  TIP3      3571            0.0000000000
     32964      3763  TIP3      H1            -34.2767105308      -29.2715503251      -41.2803955726  TIP3      3571            0.0000000000
     32965      3763  TIP3      H2            -35.0756027733      -30.5098721028      -41.8214928485  TIP3      3571            0.0000000000
     32966      3764  TIP3      OH2           -20.9178474002      -19.6035945322      -31.6383995540  TIP3      3572            0.0000000000
     32967      3764  TIP3      H1            -21.0278455229      -18.9105200561      -32.3174259365  TIP3      3572            0.0000000000
     32968      3764  TIP3      H2            -19.9594603800      -19.5338259318      -31.4506593568  TIP3      3572            0.0000000000
     32969      3765  TIP3      OH2           -33.7853836279      -35.2363792416      -32.7915889557  TIP3      3573            0.0000000000
     32970      3765  TIP3      H1            -33.6093879216      -35.3820764634      -33.7496283620  TIP3      3573            0.0000000000
     32971      3765  TIP3      H2            -33.7804647138      -36.1852618460      -32.5436177113  TIP3      3573            0.0000000000
     32972      3766  TIP3      OH2           -34.4571952305      -21.5480393337      -36.6752711271  TIP3      3574            0.0000000000
     32973      3766  TIP3      H1            -35.3124752029      -21.1123357808      -36.7196836840  TIP3      3574            0.0000000000
     32974      3766  TIP3      H2            -33.9807581367      -21.0797505667      -37.3775445510  TIP3      3574            0.0000000000
     32975      3767  TIP3      OH2           -34.9329394253      -18.9009520393      -25.4220588108  TIP3      3575            0.0000000000
     32976      3767  TIP3      H1            -34.5820602745      -19.1090016646      -24.5563151314  TIP3      3575            0.0000000000
     32977      3767  TIP3      H2            -35.5032593193      -19.6792241912      -25.5838115965  TIP3      3575            0.0000000000
     32978      3768  TIP3      OH2           -30.6237460405      -20.0577328512      -23.7787923768  TIP3      3576            0.0000000000
     32979      3768  TIP3      H1            -29.8187832646      -20.4871553582      -23.4652823024  TIP3      3576            0.0000000000
     32980      3768  TIP3      H2            -30.6124322912      -20.2572953057      -24.7314961459  TIP3      3576            0.0000000000
     32981      3769  TIP3      OH2           -26.1013548909      -20.4078030967      -41.8321176952  TIP3      3577            0.0000000000
     32982      3769  TIP3      H1            -26.9359820067      -20.9054919733      -41.9048353810  TIP3      3577            0.0000000000
     32983      3769  TIP3      H2            -25.5958022621      -20.8906531545      -42.4822097836  TIP3      3577            0.0000000000
     32984      3770  TIP3      OH2           -24.0866847569      -21.6100755069      -25.0585643524  TIP3      3578            0.0000000000
     32985      3770  TIP3      H1            -24.3966940724      -22.4897275755      -24.7716935057  TIP3      3578            0.0000000000
     32986      3770  TIP3      H2            -23.3018889457      -21.4727687914      -24.4853899164  TIP3      3578            0.0000000000
     32987      3771  TIP3      OH2           -21.8917310673      -20.6938560252      -42.2016122169  TIP3      3579            0.0000000000
     32988      3771  TIP3      H1            -21.6307192798      -21.4994551867      -41.7106612033  TIP3      3579            0.0000000000
     32989      3771  TIP3      H2            -21.1074314129      -20.4897869790      -42.7260751511  TIP3      3579            0.0000000000
     32990      3772  TIP3      OH2           -35.3204939150      -25.1224718944      -24.4378172014  TIP3      3580            0.0000000000
     32991      3772  TIP3      H1            -35.1733600915      -26.0320450271      -24.7475784537  TIP3      3580            0.0000000000
     32992      3772  TIP3      H2            -36.0800120065      -24.8487275686      -24.9675557514  TIP3      3580            0.0000000000
     32993      3773  TIP3      OH2           -30.9494837751      -24.7246101352      -42.2639551649  TIP3      3581            0.0000000000
     32994      3773  TIP3      H1            -30.8542131556      -25.5397035581      -41.7667395555  TIP3      3581            0.0000000000
     32995      3773  TIP3      H2            -30.3460901558      -24.9285234863      -43.0016185535  TIP3      3581            0.0000000000
     32996      3774  TIP3      OH2           -28.6239423266      -25.1345468707      -25.0243023861  TIP3      3582            0.0000000000
     32997      3774  TIP3      H1            -28.9633399831      -24.8271141155      -25.8833949614  TIP3      3582            0.0000000000
     32998      3774  TIP3      H2            -28.5623944723      -26.1134301776      -25.1183990297  TIP3      3582            0.0000000000
     32999      3775  TIP3      OH2           -22.9432421278      -25.2724536393      -27.6261100619  TIP3      3583            0.0000000000
     33000      3775  TIP3      H1            -22.1572524354      -24.6879157233      -27.6952149703  TIP3      3583            0.0000000000
     33001      3775  TIP3      H2            -23.6439567926      -24.6046886855      -27.5839465968  TIP3      3583            0.0000000000
     33002      3776  TIP3      OH2           -34.4298980919      -27.8876438432      -25.0270466613  TIP3      3584            0.0000000000
     33003      3776  TIP3      H1            -34.0551957171      -28.7875377734      -25.1069851439  TIP3      3584            0.0000000000
     33004      3776  TIP3      H2            -34.7821810715      -27.9598723332      -24.1364448828  TIP3      3584            0.0000000000
     33005      3777  TIP3      OH2           -29.8116001478      -26.7414820067      -39.9983457461  TIP3      3585            0.0000000000
     33006      3777  TIP3      H1            -30.2805750534      -27.2663534411      -39.3269550805  TIP3      3585            0.0000000000
     33007      3777  TIP3      H2            -29.4754302166      -27.4466901907      -40.5964429579  TIP3      3585            0.0000000000
     33008      3778  TIP3      OH2           -30.5343422425      -28.9536054081      -27.6618052323  TIP3      3586            0.0000000000
     33009      3778  TIP3      H1            -31.1432625137      -28.2429098246      -27.3998305635  TIP3      3586            0.0000000000
     33010      3778  TIP3      H2            -30.1370234262      -28.5939181055      -28.4771348047  TIP3      3586            0.0000000000
     33011      3779  TIP3      OH2           -28.7496454229      -28.5198610186      -41.7717935125  TIP3      3587            0.0000000000
     33012      3779  TIP3      H1            -28.8245953362      -28.7283079684      -42.7089895757  TIP3      3587            0.0000000000
     33013      3779  TIP3      H2            -27.7656365880      -28.4486648730      -41.6468916996  TIP3      3587            0.0000000000
     33014      3780  TIP3      OH2           -25.4909393787      -26.3825084247      -24.3065352951  TIP3      3588            0.0000000000
     33015      3780  TIP3      H1            -24.5373069265      -26.4108657047      -24.4629635901  TIP3      3588            0.0000000000
     33016      3780  TIP3      H2            -25.6491453052      -27.1521015789      -23.7361167898  TIP3      3588            0.0000000000
     33017      3781  TIP3      OH2           -19.5335082858      -26.0927337404       42.7539313858  TIP3      3589            0.0000000000
     33018      3781  TIP3      H1            -19.6448991424      -26.5856180448       41.9261334700  TIP3      3589            0.0000000000
     33019      3781  TIP3      H2            -19.3177459058      -25.1918690114       42.4818964056  TIP3      3589            0.0000000000
     33020      3782  TIP3      OH2           -30.1251781573      -31.5757049977      -26.5805643632  TIP3      3590            0.0000000000
     33021      3782  TIP3      H1            -30.0196493595      -32.2981962889      -27.2209920196  TIP3      3590            0.0000000000
     33022      3782  TIP3      H2            -30.2079815700      -30.7761583818      -27.1454869106  TIP3      3590            0.0000000000
     33023      3783  TIP3      OH2           -29.7369476727      -33.1783139117      -29.0755646673  TIP3      3591            0.0000000000
     33024      3783  TIP3      H1            -29.2105411701      -32.7125203623      -29.7612194026  TIP3      3591            0.0000000000
     33025      3783  TIP3      H2            -30.6274696400      -33.2882631530      -29.4920508734  TIP3      3591            0.0000000000
     33026      3784  TIP3      OH2           -28.1900117513      -27.7130930782      -28.8079844225  TIP3      3592            0.0000000000
     33027      3784  TIP3      H1            -27.4250829884      -27.8743721893      -29.3707219133  TIP3      3592            0.0000000000
     33028      3784  TIP3      H2            -28.5390314126      -26.8747724828      -29.1505329217  TIP3      3592            0.0000000000
     33029      3785  TIP3      OH2           -23.8131667555      -29.9584962531      -23.8562861513  TIP3      3593            0.0000000000
     33030      3785  TIP3      H1            -23.5617889178      -30.8911888333      -23.9061909481  TIP3      3593            0.0000000000
     33031      3785  TIP3      H2            -22.9457354807      -29.5214591704      -23.8296775245  TIP3      3593            0.0000000000
     33032      3786  TIP3      OH2           -22.4572996252      -27.1621844312      -25.7080974928  TIP3      3594            0.0000000000
     33033      3786  TIP3      H1            -22.7003938027      -26.4275617819      -26.3090820136  TIP3      3594            0.0000000000
     33034      3786  TIP3      H2            -21.4936293480      -27.1892070074      -25.8728821013  TIP3      3594            0.0000000000
     33035      3787  TIP3      OH2           -31.6993680253      -30.3042252496      -24.7230115110  TIP3      3595            0.0000000000
     33036      3787  TIP3      H1            -32.4583168917      -30.9159092395      -24.8261834367  TIP3      3595            0.0000000000
     33037      3787  TIP3      H2            -31.0207381479      -30.6963005291      -25.3033629595  TIP3      3595            0.0000000000
     33038      3788  TIP3      OH2           -29.0783654547      -35.5682004105      -28.3794144125  TIP3      3596            0.0000000000
     33039      3788  TIP3      H1            -29.1531095160      -34.6432209905      -28.7164377361  TIP3      3596            0.0000000000
     33040      3788  TIP3      H2            -29.6595884002      -35.9964181181      -29.0346961509  TIP3      3596            0.0000000000
     33041      3789  TIP3      OH2           -27.6756292311      -31.4300189743      -25.0658305044  TIP3      3597            0.0000000000
     33042      3789  TIP3      H1            -27.9495245677      -31.7010440971      -24.1702289450  TIP3      3597            0.0000000000
     33043      3789  TIP3      H2            -28.4778938264      -31.6343242465      -25.5781573019  TIP3      3597            0.0000000000
     33044      3790  TIP3      OH2           -24.9549545762      -32.2780455473      -25.9657451819  TIP3      3598            0.0000000000
     33045      3790  TIP3      H1            -25.9189543855      -32.2468596562      -25.8306312385  TIP3      3598            0.0000000000
     33046      3790  TIP3      H2            -24.6698765402      -32.9076372435      -25.2764343539  TIP3      3598            0.0000000000
     33047      3791  TIP3      OH2           -23.3965529409      -33.5768263079      -24.0230868912  TIP3      3599            0.0000000000
     33048      3791  TIP3      H1            -23.4183215957      -34.5664327394      -24.0112296499  TIP3      3599            0.0000000000
     33049      3791  TIP3      H2            -23.6385285141      -33.3677683104      -23.1004384870  TIP3      3599            0.0000000000
     33050      3792  TIP3      OH2           -33.4400539482      -32.4009212307      -24.9438720830  TIP3      3600            0.0000000000
     33051      3792  TIP3      H1            -33.3216345947      -33.1445136396      -25.5554153496  TIP3      3600            0.0000000000
     33052      3792  TIP3      H2            -33.6191943789      -32.8762746001      -24.1057817056  TIP3      3600            0.0000000000
     33053      3793  TIP3      OH2           -28.7594742606       36.5914111882      -25.9289666133  TIP3      3601            0.0000000000
     33054      3793  TIP3      H1            -28.0215523972       35.9882456210      -25.9399800339  TIP3      3601            0.0000000000
     33055      3793  TIP3      H2            -28.8707031675       36.8560855433      -26.8724511532  TIP3      3601            0.0000000000
     33056      3794  TIP3      OH2           -28.3730993448      -34.7154377651      -23.8929925675  TIP3      3602            0.0000000000
     33057      3794  TIP3      H1            -28.5135023441      -35.2431290691      -24.7039723456  TIP3      3602            0.0000000000
     33058      3794  TIP3      H2            -28.9734155716      -33.9626999946      -23.9765257941  TIP3      3602            0.0000000000
     33059      3795  TIP3      OH2           -28.8906610460      -17.8547192657      -40.7645918238  TIP3      3603            0.0000000000
     33060      3795  TIP3      H1            -27.9251865386      -17.7349059427      -40.6030710846  TIP3      3603            0.0000000000
     33061      3795  TIP3      H2            -29.0674154713      -17.1647913163      -41.4005110972  TIP3      3603            0.0000000000
     33062      3796  TIP3      OH2           -35.2831672982      -23.2528646508      -41.2081968778  TIP3      3604            0.0000000000
     33063      3796  TIP3      H1            -34.3270979609      -23.1536133933      -40.9940540763  TIP3      3604            0.0000000000
     33064      3796  TIP3      H2            -35.2880935291      -23.8376695548      -41.9672965777  TIP3      3604            0.0000000000
     33065      3797  TIP3      OH2            36.8519796249      -17.7210022765      -36.3952733419  TIP3      3605            0.0000000000
     33066      3797  TIP3      H1             35.9516462841      -17.9591924851      -36.7123478578  TIP3      3605            0.0000000000
     33067      3797  TIP3      H2             36.9437646840      -18.3649461405      -35.6508963903  TIP3      3605            0.0000000000
     33068      3798  TIP3      OH2           -35.7175330645      -19.7127756318      -34.4128931497  TIP3      3606            0.0000000000
     33069      3798  TIP3      H1            -36.0722609991      -20.6016132677      -34.1831802663  TIP3      3606            0.0000000000
     33070      3798  TIP3      H2            -35.4796776801      -19.4270475148      -33.5094768627  TIP3      3606            0.0000000000
     33071      3799  TIP3      OH2           -18.2040012016      -18.9497043074      -31.4345207821  TIP3      3607            0.0000000000
     33072      3799  TIP3      H1            -18.1779055052      -18.7883301447      -30.4761802719  TIP3      3607            0.0000000000
     33073      3799  TIP3      H2            -17.4981909480      -18.3692119522      -31.7375837321  TIP3      3607            0.0000000000
     33074      3800  TIP3      OH2           -18.5882184951      -19.3603862533      -28.5037908989  TIP3      3608            0.0000000000
     33075      3800  TIP3      H1            -19.1125533456      -20.1129671009      -28.8551964401  TIP3      3608            0.0000000000
     33076      3800  TIP3      H2            -18.1404640169      -19.8098357841      -27.7674653049  TIP3      3608            0.0000000000
     33077      3801  TIP3      OH2           -20.1973980616      -23.6230453592      -23.8592554546  TIP3      3609            0.0000000000
     33078      3801  TIP3      H1            -21.0612679099      -23.6845144067      -23.4187986019  TIP3      3609            0.0000000000
     33079      3801  TIP3      H2            -19.8068816427      -22.8556048101      -23.3913054589  TIP3      3609            0.0000000000
     33080      3802  TIP3      OH2           -18.8557523104      -25.3118412021      -38.3883999044  TIP3      3610            0.0000000000
     33081      3802  TIP3      H1            -18.0057459515      -24.8996520803      -38.1757044026  TIP3      3610            0.0000000000
     33082      3802  TIP3      H2            -18.8814886471      -26.0281410427      -37.7146443273  TIP3      3610            0.0000000000
     33083      3803  TIP3      OH2           -18.5164287049      -27.2140828192      -36.4945985871  TIP3      3611            0.0000000000
     33084      3803  TIP3      H1            -19.2556747641      -27.7393818514      -36.1171335087  TIP3      3611            0.0000000000
     33085      3803  TIP3      H2            -17.9106312897      -27.0942931346      -35.7362274360  TIP3      3611            0.0000000000
     33086      3804  TIP3      OH2           -18.7509741884      -24.5350323154      -31.5221997796  TIP3      3612            0.0000000000
     33087      3804  TIP3      H1            -17.9293998566      -24.9053169139      -31.8906861684  TIP3      3612            0.0000000000
     33088      3804  TIP3      H2            -18.6070205382      -23.5787621040      -31.6855461536  TIP3      3612            0.0000000000
     33089      3805  TIP3      OH2           -20.2025055287      -21.6219106442      -29.2412146420  TIP3      3613            0.0000000000
     33090      3805  TIP3      H1            -20.8878257543      -21.2797186853      -28.6439643518  TIP3      3613            0.0000000000
     33091      3805  TIP3      H2            -20.7579018023      -22.0115890051      -29.9506433299  TIP3      3613            0.0000000000
     33092      3806  TIP3      OH2           -18.2127927274      -27.4057577531      -40.1309038824  TIP3      3614            0.0000000000
     33093      3806  TIP3      H1            -18.7969298295      -27.0450495679      -40.8197642016  TIP3      3614            0.0000000000
     33094      3806  TIP3      H2            -18.2836010825      -26.7063427292      -39.4523864299  TIP3      3614            0.0000000000
     33095      3807  TIP3      OH2           -20.2127057659      -30.1401891762      -41.4965769718  TIP3      3615            0.0000000000
     33096      3807  TIP3      H1            -19.7649486910      -29.5491215155      -42.1261587567  TIP3      3615            0.0000000000
     33097      3807  TIP3      H2            -20.0324312911      -30.9819604481      -41.9584715619  TIP3      3615            0.0000000000
     33098      3808  TIP3      OH2           -20.6880350973      -28.7533070288      -35.9329528601  TIP3      3616            0.0000000000
     33099      3808  TIP3      H1            -20.8365197944      -29.7099790585      -35.9727341748  TIP3      3616            0.0000000000
     33100      3808  TIP3      H2            -21.0210773184      -28.5319051440      -35.0452567576  TIP3      3616            0.0000000000
     33101      3809  TIP3      OH2           -35.6609163594      -26.6798950150      -31.9480327934  TIP3      3617            0.0000000000
     33102      3809  TIP3      H1            -35.4630318656      -26.7312009363      -32.9049501606  TIP3      3617            0.0000000000
     33103      3809  TIP3      H2            -34.7840815972      -26.7978082089      -31.5250169614  TIP3      3617            0.0000000000
     33104      3810  TIP3      OH2           -19.8299057458      -26.7911529140      -26.2563625008  TIP3      3618            0.0000000000
     33105      3810  TIP3      H1            -19.2232380325      -27.5427796844      -26.0931793355  TIP3      3618            0.0000000000
     33106      3810  TIP3      H2            -19.2401379155      -26.0083616832      -26.2363128029  TIP3      3618            0.0000000000
     33107      3811  TIP3      OH2           -18.3232279465      -28.9053620083      -25.5588931747  TIP3      3619            0.0000000000
     33108      3811  TIP3      H1            -19.2093126951      -29.2898571719      -25.7583116242  TIP3      3619            0.0000000000
     33109      3811  TIP3      H2            -17.7641785731      -29.6888696055      -25.6880191505  TIP3      3619            0.0000000000
     33110      3812  TIP3      OH2           -20.6062694564      -32.7261714749      -42.4511496096  TIP3      3620            0.0000000000
     33111      3812  TIP3      H1            -20.0107531050      -33.1629962412      -41.8126042401  TIP3      3620            0.0000000000
     33112      3812  TIP3      H2            -21.4791844149      -33.1214408429      -42.2770724997  TIP3      3620            0.0000000000
     33113      3813  TIP3      OH2           -21.0140347201      -31.1539852502      -37.4620667709  TIP3      3621            0.0000000000
     33114      3813  TIP3      H1            -20.7118645056      -32.0815743995      -37.3539131080  TIP3      3621            0.0000000000
     33115      3813  TIP3      H2            -20.2296546586      -30.7627213291      -37.8755225185  TIP3      3621            0.0000000000
     33116      3814  TIP3      OH2           -20.3887275506      -30.6026780206      -32.0396536595  TIP3      3622            0.0000000000
     33117      3814  TIP3      H1            -19.4224621066      -30.3915407634      -32.0462018112  TIP3      3622            0.0000000000
     33118      3814  TIP3      H2            -20.5730986037      -30.4912736895      -31.0937185016  TIP3      3622            0.0000000000
     33119      3815  TIP3      OH2           -20.3261781018      -29.8855411546      -29.2571653679  TIP3      3623            0.0000000000
     33120      3815  TIP3      H1            -21.2017789629      -29.6071476849      -28.9218303914  TIP3      3623            0.0000000000
     33121      3815  TIP3      H2            -19.8853044582      -29.0305152265      -29.4728227961  TIP3      3623            0.0000000000
     33122      3816  TIP3      OH2           -35.8020897922      -31.4871894773      -25.7066448958  TIP3      3624            0.0000000000
     33123      3816  TIP3      H1            -34.9054312157      -31.7135411587      -25.4288448847  TIP3      3624            0.0000000000
     33124      3816  TIP3      H2            -36.3705127250      -32.2011874870      -25.3384993513  TIP3      3624            0.0000000000
     33125      3817  TIP3      OH2           -17.9754003108      -35.8533194456      -23.8972423267  TIP3      3625            0.0000000000
     33126      3817  TIP3      H1            -17.7480123766      -36.5346512222      -24.5486087494  TIP3      3625            0.0000000000
     33127      3817  TIP3      H2            -17.9776675441      -35.0198838053      -24.4056014362  TIP3      3625            0.0000000000
     33128      3818  TIP3      OH2           -20.3549456054      -33.8698391390      -37.4238489439  TIP3      3626            0.0000000000
     33129      3818  TIP3      H1            -20.1568466910      -34.3387315883      -36.5843776700  TIP3      3626            0.0000000000
     33130      3818  TIP3      H2            -20.9500430665      -34.5059420681      -37.8871509490  TIP3      3626            0.0000000000
     33131      3819  TIP3      OH2           -34.8938687482      -33.0029877073      -32.8979626311  TIP3      3627            0.0000000000
     33132      3819  TIP3      H1            -34.4443086022      -33.8558939469      -32.6402176218  TIP3      3627            0.0000000000
     33133      3819  TIP3      H2            -34.3042705579      -32.3849548465      -32.4538397000  TIP3      3627            0.0000000000
     33134      3820  TIP3      OH2           -36.0017641234      -29.3514416830      -31.4748731657  TIP3      3628            0.0000000000
     33135      3820  TIP3      H1            -35.9900907292      -29.7877425465      -32.3577156785  TIP3      3628            0.0000000000
     33136      3820  TIP3      H2            -35.9393786606      -28.4381878775      -31.7474194830  TIP3      3628            0.0000000000
     33137      3821  TIP3      OH2           -18.5144402302      -33.7811050700      -25.5516161952  TIP3      3629            0.0000000000
     33138      3821  TIP3      H1            -19.4499237876      -33.4968388085      -25.6118748993  TIP3      3629            0.0000000000
     33139      3821  TIP3      H2            -18.4600667300      -34.3006093619      -26.3692293323  TIP3      3629            0.0000000000
     33140      3822  TIP3      OH2           -18.5190061181      -33.8386031117      -40.8800594991  TIP3      3630            0.0000000000
     33141      3822  TIP3      H1            -18.0942505313      -34.5520642729      -41.3867133382  TIP3      3630            0.0000000000
     33142      3822  TIP3      H2            -17.8015503755      -33.1812991849      -40.8501268384  TIP3      3630            0.0000000000
     33143      3823  TIP3      OH2           -35.7682826804      -33.8766184292      -38.1508718871  TIP3      3631            0.0000000000
     33144      3823  TIP3      H1            -36.7078006268      -33.6638058065      -38.0543044663  TIP3      3631            0.0000000000
     33145      3823  TIP3      H2            -35.5326202255      -33.1419465403      -38.7508791900  TIP3      3631            0.0000000000
     33146      3824  TIP3      OH2           -21.4765834448      -18.8579218348      -35.8155534096  TIP3      3632            0.0000000000
     33147      3824  TIP3      H1            -20.7889471238      -19.1807739393      -36.4228141475  TIP3      3632            0.0000000000
     33148      3824  TIP3      H2            -20.9612132080      -18.3629232768      -35.1610393088  TIP3      3632            0.0000000000
     33149      3825  TIP3      OH2            36.9585160798      -35.1174389901      -29.1818113978  TIP3      3633            0.0000000000
     33150      3825  TIP3      H1             36.1509022366      -35.3953774956      -28.7565441541  TIP3      3633            0.0000000000
     33151      3825  TIP3      H2             36.5320139177      -34.6906432852      -29.9500953125  TIP3      3633            0.0000000000
     33152      3826  TIP3      OH2           -34.0680569540      -21.9133949948      -25.2735152247  TIP3      3634            0.0000000000
     33153      3826  TIP3      H1            -34.9006811532      -21.7080114974      -25.7240121294  TIP3      3634            0.0000000000
     33154      3826  TIP3      H2            -34.3415163315      -22.0145531331      -24.3746566438  TIP3      3634            0.0000000000
     33155      3827  TIP3      OH2           -31.1104366692      -20.9584504046      -28.9978251034  TIP3      3635            0.0000000000
     33156      3827  TIP3      H1            -31.5008936602      -20.1137809614      -29.2952264647  TIP3      3635            0.0000000000
     33157      3827  TIP3      H2            -30.2024665949      -20.8652801252      -29.3423119765  TIP3      3635            0.0000000000
     33158      3828  TIP3      OH2           -26.7868024357      -19.6016832286      -26.1456191679  TIP3      3636            0.0000000000
     33159      3828  TIP3      H1            -26.6614378355      -19.8822658218      -25.2000184785  TIP3      3636            0.0000000000
     33160      3828  TIP3      H2            -25.9075055371      -19.2729889518      -26.3739424329  TIP3      3636            0.0000000000
     33161      3829  TIP3      OH2           -19.4993898556      -35.6270072494      -27.8043226338  TIP3      3637            0.0000000000
     33162      3829  TIP3      H1            -20.3463529128      -35.3265340565      -28.1709293215  TIP3      3637            0.0000000000
     33163      3829  TIP3      H2            -19.3380595258      -36.4803958171      -28.2624199006  TIP3      3637            0.0000000000
     33164      3830  TIP3      OH2           -33.6892787731      -17.7305561280      -29.0146811337  TIP3      3638            0.0000000000
     33165      3830  TIP3      H1            -34.4288472670      -17.2272514983      -29.4076496695  TIP3      3638            0.0000000000
     33166      3830  TIP3      H2            -34.0355823865      -17.9135422153      -28.1299844470  TIP3      3638            0.0000000000
     33167      3831  TIP3      OH2           -31.2658559626      -18.2053310017      -30.0198904209  TIP3      3639            0.0000000000
     33168      3831  TIP3      H1            -32.1154099114      -18.0063936348      -29.5618873956  TIP3      3639            0.0000000000
     33169      3831  TIP3      H2            -31.2703076483      -17.5207479484      -30.7106725550  TIP3      3639            0.0000000000
     33170      3832  TIP3      OH2           -26.5749253173      -18.2289114926      -30.7180084256  TIP3      3640            0.0000000000
     33171      3832  TIP3      H1            -26.9792151818      -17.6930873644      -31.4314734451  TIP3      3640            0.0000000000
     33172      3832  TIP3      H2            -26.3964197907      -17.5679572469      -30.0457805122  TIP3      3640            0.0000000000
     33173      3833  TIP3      OH2           -24.2713971014      -19.3896537075      -29.6881321163  TIP3      3641            0.0000000000
     33174      3833  TIP3      H1            -25.0855719368      -19.1506141476      -30.1615003372  TIP3      3641            0.0000000000
     33175      3833  TIP3      H2            -23.7454567540      -18.5883722658      -29.8617661658  TIP3      3641            0.0000000000
     33176      3834  TIP3      OH2           -21.6343170058      -17.8470382468      -29.5355129747  TIP3      3642            0.0000000000
     33177      3834  TIP3      H1            -21.7202724732      -16.8892149331      -29.7632794887  TIP3      3642            0.0000000000
     33178      3834  TIP3      H2            -21.4319035294      -18.2240967049      -30.4107697487  TIP3      3642            0.0000000000
     33179      3835  TIP3      OH2           -34.3105977118      -19.0798831541      -32.0991344849  TIP3      3643            0.0000000000
     33180      3835  TIP3      H1            -34.2909380331      -19.5171903671      -31.2225104085  TIP3      3643            0.0000000000
     33181      3835  TIP3      H2            -33.4781090371      -19.4331043833      -32.4772619116  TIP3      3643            0.0000000000
     33182      3836  TIP3      OH2           -32.1990388336      -20.3659998905      -33.4445565955  TIP3      3644            0.0000000000
     33183      3836  TIP3      H1            -32.3561959485      -21.2982377231      -33.1974963709  TIP3      3644            0.0000000000
     33184      3836  TIP3      H2            -31.3285216768      -20.2076106279      -33.0031284802  TIP3      3644            0.0000000000
     33185      3837  TIP3      OH2           -29.6334690782      -19.9058347411      -32.5425036263  TIP3      3645            0.0000000000
     33186      3837  TIP3      H1            -29.3835003423      -20.7953459286      -32.8385647071  TIP3      3645            0.0000000000
     33187      3837  TIP3      H2            -29.5410848090      -19.9578997966      -31.5830659712  TIP3      3645            0.0000000000
     33188      3838  TIP3      OH2           -26.2265344650      -34.1513809861      -33.4461462361  TIP3      3646            0.0000000000
     33189      3838  TIP3      H1            -26.8064624304      -34.8803766956      -33.1506628476  TIP3      3646            0.0000000000
     33190      3838  TIP3      H2            -25.5457451432      -34.6669425513      -33.9323022614  TIP3      3646            0.0000000000
     33191      3839  TIP3      OH2           -20.9720884098      -36.1471514023      -33.3139187066  TIP3      3647            0.0000000000
     33192      3839  TIP3      H1            -20.3535330346      -35.5966017044      -33.8404511031  TIP3      3647            0.0000000000
     33193      3839  TIP3      H2            -21.8389588431      -35.8097407259      -33.5581132756  TIP3      3647            0.0000000000
     33194      3840  TIP3      OH2           -19.2815613882      -34.9083476154      -35.0576692122  TIP3      3648            0.0000000000
     33195      3840  TIP3      H1            -18.6461516203      -35.4951895589      -35.4863499258  TIP3      3648            0.0000000000
     33196      3840  TIP3      H2            -18.7872881711      -34.0665190890      -34.9866039989  TIP3      3648            0.0000000000
     33197      3841  TIP3      OH2           -33.9630107599      -35.5257835305      -35.5135909280  TIP3      3649            0.0000000000
     33198      3841  TIP3      H1            -34.5520970127      -35.8694138174      -36.1640830311  TIP3      3649            0.0000000000
     33199      3841  TIP3      H2            -33.2680028631      -36.2524185277      -35.5076429507  TIP3      3649            0.0000000000
     33200      3842  TIP3      OH2           -34.9593029639      -35.8675501740      -39.8822772136  TIP3      3650            0.0000000000
     33201      3842  TIP3      H1            -34.4620781161      -35.2070140812      -40.3771276346  TIP3      3650            0.0000000000
     33202      3842  TIP3      H2            -35.5119434424      -35.2926894468      -39.3254176386  TIP3      3650            0.0000000000
     33203      3843  TIP3      OH2           -28.6817553780      -35.5561517422      -36.0109493811  TIP3      3651            0.0000000000
     33204      3843  TIP3      H1            -27.9350642794      -35.0856212792      -35.6772008795  TIP3      3651            0.0000000000
     33205      3843  TIP3      H2            -29.2327447626      -35.7806070859      -35.2159265259  TIP3      3651            0.0000000000
     33206      3844  TIP3      OH2           -23.8180457835      -35.3000492354      -34.0024416431  TIP3      3652            0.0000000000
     33207      3844  TIP3      H1            -23.6713056791      -35.3474553449      -34.9512232666  TIP3      3652            0.0000000000
     33208      3844  TIP3      H2            -23.9048646898      -36.2809286301      -33.8807934489  TIP3      3652            0.0000000000
     33209      3845  TIP3      OH2           -22.2876075905      -35.5760229710      -38.3959143527  TIP3      3653            0.0000000000
     33210      3845  TIP3      H1            -23.0237133616      -35.0235191987      -38.6914629267  TIP3      3653            0.0000000000
     33211      3845  TIP3      H2            -22.6794796567      -36.4600048695      -38.3381910605  TIP3      3653            0.0000000000
     33212      3846  TIP3      OH2           -35.0547341533      -19.8793037162      -38.8146756186  TIP3      3654            0.0000000000
     33213      3846  TIP3      H1            -35.6828326667      -19.8935615045      -39.5535381658  TIP3      3654            0.0000000000
     33214      3846  TIP3      H2            -35.0198124262      -18.9196676774      -38.6876500059  TIP3      3654            0.0000000000
     33215      3847  TIP3      OH2           -33.1646412245      -33.9763816428      -41.3412294497  TIP3      3655            0.0000000000
     33216      3847  TIP3      H1            -32.6121961250      -34.5430795222      -41.8841914113  TIP3      3655            0.0000000000
     33217      3847  TIP3      H2            -32.4911836811      -33.6105060048      -40.7351935143  TIP3      3655            0.0000000000
     33218      3848  TIP3      OH2           -28.1501984077      -33.6515002115      -38.9030875981  TIP3      3656            0.0000000000
     33219      3848  TIP3      H1            -27.8577582611      -34.2409116407      -38.1795808430  TIP3      3656            0.0000000000
     33220      3848  TIP3      H2            -28.0585810106      -32.7938004394      -38.4401459943  TIP3      3656            0.0000000000
     33221      3849  TIP3      OH2           -26.2208813410      -18.2984184456      -40.5215170292  TIP3      3657            0.0000000000
     33222      3849  TIP3      H1            -25.2550370917      -18.3192914322      -40.6260555837  TIP3      3657            0.0000000000
     33223      3849  TIP3      H2            -26.3908987804      -19.0431312064      -41.1435315888  TIP3      3657            0.0000000000
     33224      3850  TIP3      OH2           -19.4756939608      -19.0813508270      -37.7779392172  TIP3      3658            0.0000000000
     33225      3850  TIP3      H1            -19.6853442637      -19.8595051202      -38.3513368271  TIP3      3658            0.0000000000
     33226      3850  TIP3      H2            -19.5677321744      -18.3454207801      -38.4111519383  TIP3      3658            0.0000000000
     33227      3851  TIP3      OH2           -33.9670673423      -35.0607897858      -26.2154001798  TIP3      3659            0.0000000000
     33228      3851  TIP3      H1            -34.2752286123      -35.8126018166      -25.6942159772  TIP3      3659            0.0000000000
     33229      3851  TIP3      H2            -33.0494303063      -35.0575939920      -25.8471890785  TIP3      3659            0.0000000000
     33230      3852  TIP3      OH2           -32.1238186839      -35.5427397265      -24.6267194451  TIP3      3660            0.0000000000
     33231      3852  TIP3      H1            -31.1768771692      -35.7065711494      -24.7450988095  TIP3      3660            0.0000000000
     33232      3852  TIP3      H2            -32.2792144461      -36.3616810435      -24.1200370209  TIP3      3660            0.0000000000
     33233      3853  TIP3      OH2           -33.1919065901      -18.9077863956      -41.8773859758  TIP3      3661            0.0000000000
     33234      3853  TIP3      H1            -33.5080400885      -18.6499300784      -41.0018075323  TIP3      3661            0.0000000000
     33235      3853  TIP3      H2            -32.4451842705      -19.4700111361      -41.6992266400  TIP3      3661            0.0000000000
     33236      3854  TIP3      OH2           -23.2686689375       36.9123547792      -24.2000121327  TIP3      3662            0.0000000000
     33237      3854  TIP3      H1            -23.3193650369       36.2949709204      -23.4535796048  TIP3      3662            0.0000000000
     33238      3854  TIP3      H2            -22.4847444197       36.6654179629      -24.7013158831  TIP3      3662            0.0000000000
     33239      3855  TIP3      OH2           -20.2366167464      -20.3478563238      -25.6717135051  TIP3      3663            0.0000000000
     33240      3855  TIP3      H1            -21.0480384967      -20.4724964689      -26.2110268654  TIP3      3663            0.0000000000
     33241      3855  TIP3      H2            -20.3518270707      -19.3955120527      -25.4651887538  TIP3      3663            0.0000000000
     33242      3856  TIP3      OH2            -5.8382141246      -26.4476736007      -35.6399889032  TIP3      3664            0.0000000000
     33243      3856  TIP3      H1             -5.7987817068      -25.4803037171      -35.7910781073  TIP3      3664            0.0000000000
     33244      3856  TIP3      H2             -6.5056850054      -26.7176154348      -36.2943022332  TIP3      3664            0.0000000000
     33245      3857  TIP3      OH2            -6.9907701957      -27.1495877064      -32.2132914585  TIP3      3665            0.0000000000
     33246      3857  TIP3      H1             -6.9429069330      -27.8272587609      -31.5023006978  TIP3      3665            0.0000000000
     33247      3857  TIP3      H2             -7.2653493356      -27.7096906844      -32.9631753801  TIP3      3665            0.0000000000
     33248      3858  TIP3      OH2           -14.5889781608      -27.5321739467      -30.6554449098  TIP3      3666            0.0000000000
     33249      3858  TIP3      H1            -14.5047428396      -28.2178249867      -29.9593040993  TIP3      3666            0.0000000000
     33250      3858  TIP3      H2            -13.8410975510      -26.9589988174      -30.4367844304  TIP3      3666            0.0000000000
     33251      3859  TIP3      OH2            -3.3073490972      -24.2403470520      -33.9291453778  TIP3      3667            0.0000000000
     33252      3859  TIP3      H1             -3.6225677863      -25.0007683844      -33.4326124544  TIP3      3667            0.0000000000
     33253      3859  TIP3      H2             -3.1985687105      -23.5468626910      -33.2534601909  TIP3      3667            0.0000000000
     33254      3860  TIP3      OH2           -13.6607636626      -23.0853651808      -32.1483837574  TIP3      3668            0.0000000000
     33255      3860  TIP3      H1            -13.9771367024      -23.9495976551      -32.4746179924  TIP3      3668            0.0000000000
     33256      3860  TIP3      H2            -12.7063672224      -23.2707984749      -32.1022796904  TIP3      3668            0.0000000000
     33257      3861  TIP3      OH2           -17.0242159997      -29.5223974986      -36.6644670285  TIP3      3669            0.0000000000
     33258      3861  TIP3      H1            -17.4599887972      -28.6532495580      -36.7264548079  TIP3      3669            0.0000000000
     33259      3861  TIP3      H2            -17.5844473225      -30.0560623109      -37.2476731216  TIP3      3669            0.0000000000
     33260      3862  TIP3      OH2           -16.3129881037      -27.2860304160      -34.5282316161  TIP3      3670            0.0000000000
     33261      3862  TIP3      H1            -16.0487607614      -28.1092788307      -34.0710186293  TIP3      3670            0.0000000000
     33262      3862  TIP3      H2            -15.6104176515      -27.1948829326      -35.1880345202  TIP3      3670            0.0000000000
     33263      3863  TIP3      OH2            -6.1445305476      -19.1162577076      -33.6940418410  TIP3      3671            0.0000000000
     33264      3863  TIP3      H1             -5.4796194747      -19.7875333854      -33.9792096772  TIP3      3671            0.0000000000
     33265      3863  TIP3      H2             -6.3385939703      -19.4041126589      -32.8068062433  TIP3      3671            0.0000000000
     33266      3864  TIP3      OH2            -8.5276748427      -24.7390066086      -31.8147238923  TIP3      3672            0.0000000000
     33267      3864  TIP3      H1             -8.2978164230      -25.4878761675      -32.4040580182  TIP3      3672            0.0000000000
     33268      3864  TIP3      H2             -7.9106021189      -24.8514370583      -31.0915746208  TIP3      3672            0.0000000000
     33269      3865  TIP3      OH2             0.0527696037      -33.1688869099      -31.0020748539  TIP3      3673            0.0000000000
     33270      3865  TIP3      H1              0.2002557668      -32.5652999467      -30.2399931952  TIP3      3673            0.0000000000
     33271      3865  TIP3      H2              0.5744515852      -32.7175625844      -31.6788217471  TIP3      3673            0.0000000000
     33272      3866  TIP3      OH2            -4.9000296578      -30.3470029491      -31.9477724201  TIP3      3674            0.0000000000
     33273      3866  TIP3      H1             -5.2425203935      -31.1394890885      -31.4736152676  TIP3      3674            0.0000000000
     33274      3866  TIP3      H2             -5.5840576903      -30.2044805321      -32.6180617130  TIP3      3674            0.0000000000
     33275      3867  TIP3      OH2           -12.2722163820      -32.2358468561      -34.2086505565  TIP3      3675            0.0000000000
     33276      3867  TIP3      H1            -12.1803674426      -31.3999706177      -34.7037684777  TIP3      3675            0.0000000000
     33277      3867  TIP3      H2            -12.6912242119      -32.8058283154      -34.8850376065  TIP3      3675            0.0000000000
     33278      3868  TIP3      OH2            -4.5395346875      -32.2038248295      -35.8487641859  TIP3      3676            0.0000000000
     33279      3868  TIP3      H1             -3.8833894508      -32.4621487846      -35.1619693612  TIP3      3676            0.0000000000
     33280      3868  TIP3      H2             -3.9963015123      -31.6065793095      -36.3876328323  TIP3      3676            0.0000000000
     33281      3869  TIP3      OH2           -15.6602091631      -29.8389635633      -33.4686027223  TIP3      3677            0.0000000000
     33282      3869  TIP3      H1            -14.9882456661      -30.3874162752      -33.0213437015  TIP3      3677            0.0000000000
     33283      3869  TIP3      H2            -15.5617592455      -30.1519399055      -34.3826049890  TIP3      3677            0.0000000000
     33284      3870  TIP3      OH2           -10.5035470264      -28.2832603436      -34.1667946269  TIP3      3678            0.0000000000
     33285      3870  TIP3      H1             -9.8351026759      -28.8628880581      -33.7625891564  TIP3      3678            0.0000000000
     33286      3870  TIP3      H2            -11.0264973084      -28.9416821435      -34.6677334643  TIP3      3678            0.0000000000
     33287      3871  TIP3      OH2             0.4779616114      -31.7375882813      -28.7141243872  TIP3      3679            0.0000000000
     33288      3871  TIP3      H1             -0.1652010092      -31.0032312939      -28.8460800547  TIP3      3679            0.0000000000
     33289      3871  TIP3      H2              0.4984245754      -31.8539995921      -27.7537878402  TIP3      3679            0.0000000000
     33290      3872  TIP3      OH2           -13.3730746004      -33.3032557476      -30.1830530737  TIP3      3680            0.0000000000
     33291      3872  TIP3      H1            -13.6883589916      -32.7656692222      -30.9340706276  TIP3      3680            0.0000000000
     33292      3872  TIP3      H2            -14.0757415338      -33.1185897534      -29.5084652980  TIP3      3680            0.0000000000
     33293      3873  TIP3      OH2            -6.1040943541      -23.8688791825      -36.5999478003  TIP3      3681            0.0000000000
     33294      3873  TIP3      H1             -6.3598557454      -24.1504676943      -37.4934536149  TIP3      3681            0.0000000000
     33295      3873  TIP3      H2             -6.3959538632      -22.9299653930      -36.5886079771  TIP3      3681            0.0000000000
     33296      3874  TIP3      OH2           -10.8509772447      -25.7083741221      -29.9323229751  TIP3      3682            0.0000000000
     33297      3874  TIP3      H1            -11.5751686519      -25.0829092335      -29.7088055769  TIP3      3682            0.0000000000
     33298      3874  TIP3      H2            -10.1697425089      -25.0911360175      -30.2054228253  TIP3      3682            0.0000000000
     33299      3875  TIP3      OH2            -2.6957265111      -32.8677936534      -33.8813424173  TIP3      3683            0.0000000000
     33300      3875  TIP3      H1             -2.9950386863      -33.5638507675      -33.2834391295  TIP3      3683            0.0000000000
     33301      3875  TIP3      H2             -2.0970172105      -32.3711637389      -33.2952576640  TIP3      3683            0.0000000000
     33302      3876  TIP3      OH2           -13.8248658749      -31.4484475489      -32.1616263979  TIP3      3684            0.0000000000
     33303      3876  TIP3      H1            -13.1746026711      -30.8012081337      -31.8154338166  TIP3      3684            0.0000000000
     33304      3876  TIP3      H2            -13.3000456912      -31.8968766389      -32.8713675842  TIP3      3684            0.0000000000
     33305      3877  TIP3      OH2           -12.4194444477      -23.7041557010      -29.1114159921  TIP3      3685            0.0000000000
     33306      3877  TIP3      H1            -12.4633666875      -22.7900179977      -29.4478343687  TIP3      3685            0.0000000000
     33307      3877  TIP3      H2            -13.3006089652      -23.7795023168      -28.6638243546  TIP3      3685            0.0000000000
     33308      3878  TIP3      OH2           -16.3537223036      -24.0854191287      -38.3185798415  TIP3      3686            0.0000000000
     33309      3878  TIP3      H1            -16.5645775794      -23.7538530535      -39.2132473469  TIP3      3686            0.0000000000
     33310      3878  TIP3      H2            -16.2813273994      -23.2510255658      -37.8058637312  TIP3      3686            0.0000000000
     33311      3879  TIP3      OH2            -2.7418818134      -22.4256145460      -31.5758994944  TIP3      3687            0.0000000000
     33312      3879  TIP3      H1             -3.6866852612      -22.2770410726      -31.4227168577  TIP3      3687            0.0000000000
     33313      3879  TIP3      H2             -2.4302818853      -21.5124016998      -31.7544631537  TIP3      3687            0.0000000000
     33314      3880  TIP3      OH2            -2.3666814527      -34.1545226884      -30.1203874384  TIP3      3688            0.0000000000
     33315      3880  TIP3      H1             -3.1247827481      -33.5536639855      -30.2427170305  TIP3      3688            0.0000000000
     33316      3880  TIP3      H2             -1.6974484002      -33.7154908761      -30.6796988548  TIP3      3688            0.0000000000
     33317      3881  TIP3      OH2            -9.3967154011      -36.0590204206      -32.7888309778  TIP3      3689            0.0000000000
     33318      3881  TIP3      H1             -9.5868627428      -36.9950814522      -32.7422555828  TIP3      3689            0.0000000000
     33319      3881  TIP3      H2            -10.2316771849      -35.7175845533      -32.4056720641  TIP3      3689            0.0000000000
     33320      3882  TIP3      OH2            -4.4645790318      -20.6484792069      -34.9524974673  TIP3      3690            0.0000000000
     33321      3882  TIP3      H1             -4.0305081360      -21.3478633981      -35.4860886243  TIP3      3690            0.0000000000
     33322      3882  TIP3      H2             -4.0506823559      -19.8486517573      -35.3498130909  TIP3      3690            0.0000000000
     33323      3883  TIP3      OH2            -3.2759193825      -22.7074769980      -36.4514683047  TIP3      3691            0.0000000000
     33324      3883  TIP3      H1             -3.5524967056      -23.4043842873      -37.0712272825  TIP3      3691            0.0000000000
     33325      3883  TIP3      H2             -3.2104247143      -23.2055434524      -35.6201455274  TIP3      3691            0.0000000000
     33326      3884  TIP3      OH2            -1.6390091887      -24.1175708782      -27.9683692837  TIP3      3692            0.0000000000
     33327      3884  TIP3      H1             -1.5051957807      -24.7844486944      -28.6757796019  TIP3      3692            0.0000000000
     33328      3884  TIP3      H2             -1.4245491877      -23.2724591248      -28.3880745413  TIP3      3692            0.0000000000
     33329      3885  TIP3      OH2            -7.1462573787      -27.2233141805      -38.2105398431  TIP3      3693            0.0000000000
     33330      3885  TIP3      H1             -7.8400977788      -26.6474369945      -38.5852768248  TIP3      3693            0.0000000000
     33331      3885  TIP3      H2             -6.4374088720      -27.1271479109      -38.8703376697  TIP3      3693            0.0000000000
     33332      3886  TIP3      OH2            -7.1047654960      -28.6940972037      -41.1191638713  TIP3      3694            0.0000000000
     33333      3886  TIP3      H1             -6.3807547549      -28.6905028750      -40.4777761142  TIP3      3694            0.0000000000
     33334      3886  TIP3      H2             -6.7722634316      -29.3335678344      -41.7578781571  TIP3      3694            0.0000000000
     33335      3887  TIP3      OH2             0.2387618235      -27.8015697843      -29.9258994538  TIP3      3695            0.0000000000
     33336      3887  TIP3      H1             -0.4218393754      -27.0783935519      -29.8686412471  TIP3      3695            0.0000000000
     33337      3887  TIP3      H2              0.7362089194      -27.5653590113      -30.7304652214  TIP3      3695            0.0000000000
     33338      3888  TIP3      OH2            -3.7201741240      -27.0265237114      -37.2404777376  TIP3      3696            0.0000000000
     33339      3888  TIP3      H1             -4.4512899384      -26.7766429142      -36.6316181914  TIP3      3696            0.0000000000
     33340      3888  TIP3      H2             -3.2309210493      -27.6961692385      -36.7283268017  TIP3      3696            0.0000000000
     33341      3889  TIP3      OH2            -3.6606105652      -28.7483743229      -28.1447214598  TIP3      3697            0.0000000000
     33342      3889  TIP3      H1             -3.7727720302      -27.9696917515      -27.5865778825  TIP3      3697            0.0000000000
     33343      3889  TIP3      H2             -4.3838616972      -28.6162595129      -28.7969449529  TIP3      3697            0.0000000000
     33344      3890  TIP3      OH2           -12.0828938987      -26.3503521772      -35.3592638351  TIP3      3698            0.0000000000
     33345      3890  TIP3      H1            -12.4037948473      -26.7456060020      -36.2036432718  TIP3      3698            0.0000000000
     33346      3890  TIP3      H2            -11.4699083134      -27.0439833267      -35.0220242561  TIP3      3698            0.0000000000
     33347      3891  TIP3      OH2           -10.7384987130      -22.9453012190      -32.6841228232  TIP3      3699            0.0000000000
     33348      3891  TIP3      H1            -10.8022651677      -23.4855492949      -33.4859855921  TIP3      3699            0.0000000000
     33349      3891  TIP3      H2             -9.9916887306      -23.3380528824      -32.2135557602  TIP3      3699            0.0000000000
     33350      3892  TIP3      OH2           -11.7584336301      -27.6144106449      -31.7033510594  TIP3      3700            0.0000000000
     33351      3892  TIP3      H1            -11.1999971840      -27.5044413938      -32.4979030245  TIP3      3700            0.0000000000
     33352      3892  TIP3      H2            -11.3889176664      -26.9514376974      -31.0850914127  TIP3      3700            0.0000000000
     33353      3893  TIP3      OH2            -5.3776184816      -22.0435551916      -30.9565932005  TIP3      3701            0.0000000000
     33354      3893  TIP3      H1             -5.5821074055      -21.3226570942      -30.3331361108  TIP3      3701            0.0000000000
     33355      3893  TIP3      H2             -5.4259460678      -22.8204559690      -30.3593142481  TIP3      3701            0.0000000000
     33356      3894  TIP3      OH2           -10.8095858440      -23.1844357594      -26.9771717277  TIP3      3702            0.0000000000
     33357      3894  TIP3      H1            -11.2073427045      -22.4157378973      -26.5238621425  TIP3      3702            0.0000000000
     33358      3894  TIP3      H2            -11.4698755488      -23.3733338943      -27.6899541198  TIP3      3702            0.0000000000
     33359      3895  TIP3      OH2            -4.8203818641      -27.8344321354      -39.5968867885  TIP3      3703            0.0000000000
     33360      3895  TIP3      H1             -4.2737362773      -27.6343612434      -38.7985835868  TIP3      3703            0.0000000000
     33361      3895  TIP3      H2             -4.4136674458      -27.2907900330      -40.3006424190  TIP3      3703            0.0000000000
     33362      3896  TIP3      OH2           -13.8719983313      -27.0262722413      -27.8201700280  TIP3      3704            0.0000000000
     33363      3896  TIP3      H1            -13.8128669458      -26.3497781388      -27.1202167425  TIP3      3704            0.0000000000
     33364      3896  TIP3      H2            -14.7957511614      -26.9109440088      -28.0864075798  TIP3      3704            0.0000000000
     33365      3897  TIP3      OH2            -7.1305242789      -21.1122364442      -36.0936872235  TIP3      3705            0.0000000000
     33366      3897  TIP3      H1             -6.6635990927      -20.7633026255      -35.3327314630  TIP3      3705            0.0000000000
     33367      3897  TIP3      H2             -7.6598997908      -20.3554050797      -36.3896740731  TIP3      3705            0.0000000000
     33368      3898  TIP3      OH2           -12.5646476878      -21.1583537863      -26.2558138574  TIP3      3706            0.0000000000
     33369      3898  TIP3      H1            -12.6134455481      -21.2482059730      -27.2211279294  TIP3      3706            0.0000000000
     33370      3898  TIP3      H2            -13.5033043225      -21.2704304604      -26.0044638821  TIP3      3706            0.0000000000
     33371      3899  TIP3      OH2            -1.1939155986      -35.9080901550      -40.0783259748  TIP3      3707            0.0000000000
     33372      3899  TIP3      H1             -1.9594294388      -35.9381389597      -39.4474899204  TIP3      3707            0.0000000000
     33373      3899  TIP3      H2             -0.8653467271      -35.0145273756      -40.0323082060  TIP3      3707            0.0000000000
     33374      3900  TIP3      OH2           -13.1180496416      -27.3312480568      -37.7526714866  TIP3      3708            0.0000000000
     33375      3900  TIP3      H1            -13.3969661530      -26.5500623760      -38.2708879732  TIP3      3708            0.0000000000
     33376      3900  TIP3      H2            -13.7668823119      -27.9985989756      -37.9944211408  TIP3      3708            0.0000000000
     33377      3901  TIP3      OH2             0.0017080784      -21.7474825483      -41.3388090999  TIP3      3709            0.0000000000
     33378      3901  TIP3      H1              0.1318278100      -20.7890804676      -41.2104984275  TIP3      3709            0.0000000000
     33379      3901  TIP3      H2              0.9319620231      -22.0268747731      -41.4087640824  TIP3      3709            0.0000000000
     33380      3902  TIP3      OH2           -17.0153047613      -24.8981786867      -28.8578583349  TIP3      3710            0.0000000000
     33381      3902  TIP3      H1            -17.4717107664      -24.9824094433      -29.7129456674  TIP3      3710            0.0000000000
     33382      3902  TIP3      H2            -16.9505567589      -25.8465092576      -28.6311751867  TIP3      3710            0.0000000000
     33383      3903  TIP3      OH2           -17.2634894742      -22.1652655266      -32.0667456385  TIP3      3711            0.0000000000
     33384      3903  TIP3      H1            -16.3053505462      -22.2826578078      -32.0866293675  TIP3      3711            0.0000000000
     33385      3903  TIP3      H2            -17.3465617660      -21.3498065320      -31.5575609128  TIP3      3711            0.0000000000
     33386      3904  TIP3      OH2            -8.0775274036      -21.9220348400      -27.5517934376  TIP3      3712            0.0000000000
     33387      3904  TIP3      H1             -7.9976577652      -21.0955899076      -27.0108122595  TIP3      3712            0.0000000000
     33388      3904  TIP3      H2             -8.9360068200      -22.2767455529      -27.2455975553  TIP3      3712            0.0000000000
     33389      3905  TIP3      OH2            -7.6362153591      -18.1801638494      -37.7214110479  TIP3      3713            0.0000000000
     33390      3905  TIP3      H1             -7.7131165146      -18.2444114162      -38.6894928702  TIP3      3713            0.0000000000
     33391      3905  TIP3      H2             -7.6032448035      -17.2183746787      -37.5634517902  TIP3      3713            0.0000000000
     33392      3906  TIP3      OH2           -13.9875497450      -19.3021178795      -35.8998788424  TIP3      3714            0.0000000000
     33393      3906  TIP3      H1            -13.8439361574      -19.7155123794      -35.0204921241  TIP3      3714            0.0000000000
     33394      3906  TIP3      H2            -14.8364952082      -19.7076870815      -36.1391758492  TIP3      3714            0.0000000000
     33395      3907  TIP3      OH2            -4.5992415986      -18.9787430228      -40.7577047202  TIP3      3715            0.0000000000
     33396      3907  TIP3      H1             -4.1326526433      -19.7380336148      -41.1703893694  TIP3      3715            0.0000000000
     33397      3907  TIP3      H2             -4.5296842852      -19.2196042283      -39.8137416749  TIP3      3715            0.0000000000
     33398      3908  TIP3      OH2            -4.8825923626      -19.0318448358      -37.9575379180  TIP3      3716            0.0000000000
     33399      3908  TIP3      H1             -5.8395596153      -18.9627760156      -37.7725478205  TIP3      3716            0.0000000000
     33400      3908  TIP3      H2             -4.6315144362      -19.7736480960      -37.3875747515  TIP3      3716            0.0000000000
     33401      3909  TIP3      OH2            -1.8511637831      -30.0263901607      -25.8942827271  TIP3      3717            0.0000000000
     33402      3909  TIP3      H1             -2.3139739842      -29.5192756841      -26.5858711983  TIP3      3717            0.0000000000
     33403      3909  TIP3      H2             -1.8966098450      -30.9249158709      -26.2499909544  TIP3      3717            0.0000000000
     33404      3910  TIP3      OH2           -14.7375176923      -23.5885209457      -27.8988310059  TIP3      3718            0.0000000000
     33405      3910  TIP3      H1            -14.5208729183      -23.9591721887      -27.0155521187  TIP3      3718            0.0000000000
     33406      3910  TIP3      H2            -15.6064140707      -23.9846736940      -28.1174645172  TIP3      3718            0.0000000000
     33407      3911  TIP3      OH2           -12.0569622394      -35.1580965143      -31.9197181190  TIP3      3719            0.0000000000
     33408      3911  TIP3      H1            -12.9530152391      -35.2181446438      -32.3149536705  TIP3      3719            0.0000000000
     33409      3911  TIP3      H2            -12.1835607406      -34.2964888651      -31.4827373203  TIP3      3719            0.0000000000
     33410      3912  TIP3      OH2            -7.4487995438      -35.5776487025      -28.5737672682  TIP3      3720            0.0000000000
     33411      3912  TIP3      H1             -7.0204348875      -35.7892782093      -27.7442849906  TIP3      3720            0.0000000000
     33412      3912  TIP3      H2             -8.3935203047      -35.4991663854      -28.3382057373  TIP3      3720            0.0000000000
     33413      3913  TIP3      OH2            -3.9558909565      -31.6215421992      -27.4505598326  TIP3      3721            0.0000000000
     33414      3913  TIP3      H1             -4.7388411111      -31.8025431103      -26.8932314485  TIP3      3721            0.0000000000
     33415      3913  TIP3      H2             -4.3133224556      -30.8569869866      -27.9837218123  TIP3      3721            0.0000000000
     33416      3914  TIP3      OH2            -3.3054196564      -26.7241205484      -41.7813000635  TIP3      3722            0.0000000000
     33417      3914  TIP3      H1             -3.2715239044      -26.9440661487      -42.7241418855  TIP3      3722            0.0000000000
     33418      3914  TIP3      H2             -2.4245143505      -26.3216892140      -41.6541073052  TIP3      3722            0.0000000000
     33419      3915  TIP3      OH2            -7.7314063045      -32.9035031692      -41.2419108856  TIP3      3723            0.0000000000
     33420      3915  TIP3      H1             -8.0656861690      -32.9244105710      -40.3279073777  TIP3      3723            0.0000000000
     33421      3915  TIP3      H2             -8.0517441635      -33.7582974151      -41.5444719281  TIP3      3723            0.0000000000
     33422      3916  TIP3      OH2           -11.9625676333      -30.1421220474      -30.7077571382  TIP3      3724            0.0000000000
     33423      3916  TIP3      H1            -12.6957741699      -30.1574719226      -30.0666032399  TIP3      3724            0.0000000000
     33424      3916  TIP3      H2            -12.0055736664      -29.2301652989      -31.0713169952  TIP3      3724            0.0000000000
     33425      3917  TIP3      OH2           -12.0083480711      -30.0160866621      -35.8444767543  TIP3      3725            0.0000000000
     33426      3917  TIP3      H1            -12.9447275497      -30.2634236072      -35.9902466756  TIP3      3725            0.0000000000
     33427      3917  TIP3      H2            -11.6161121661      -30.3138735747      -36.6885604213  TIP3      3725            0.0000000000
     33428      3918  TIP3      OH2            -6.4727074421      -29.5246727337      -37.0859630765  TIP3      3726            0.0000000000
     33429      3918  TIP3      H1             -6.8812008805      -28.6918693629      -37.4117218387  TIP3      3726            0.0000000000
     33430      3918  TIP3      H2             -5.7757204722      -29.6791987961      -37.7463251411  TIP3      3726            0.0000000000
     33431      3919  TIP3      OH2            -7.3798301973      -29.3151759280      -25.6034861524  TIP3      3727            0.0000000000
     33432      3919  TIP3      H1             -7.9480875241      -30.0693111289      -25.3111449777  TIP3      3727            0.0000000000
     33433      3919  TIP3      H2             -6.5682241757      -29.4456631742      -25.1022348650  TIP3      3727            0.0000000000
     33434      3920  TIP3      OH2            -5.5241689164      -30.0106630350      -34.3394864264  TIP3      3728            0.0000000000
     33435      3920  TIP3      H1             -5.7321837891      -29.4402854556      -35.0759442463  TIP3      3728            0.0000000000
     33436      3920  TIP3      H2             -5.3460883659      -30.8804640081      -34.7320191811  TIP3      3728            0.0000000000
     33437      3921  TIP3      OH2           -14.3333486283      -29.8789023881      -29.0184426306  TIP3      3729            0.0000000000
     33438      3921  TIP3      H1            -14.2553246884      -29.4756491662      -28.1369935327  TIP3      3729            0.0000000000
     33439      3921  TIP3      H2            -14.7827102154      -30.7122140586      -28.8133609333  TIP3      3729            0.0000000000
     33440      3922  TIP3      OH2           -10.7817284796      -32.3045458890      -41.8763136042  TIP3      3730            0.0000000000
     33441      3922  TIP3      H1            -11.3791690909      -32.8654346598      -41.3424037163  TIP3      3730            0.0000000000
     33442      3922  TIP3      H2            -11.4344461811      -31.8869470484      -42.4681042618  TIP3      3730            0.0000000000
     33443      3923  TIP3      OH2           -17.6725788110      -32.7411502960      -35.0571900838  TIP3      3731            0.0000000000
     33444      3923  TIP3      H1            -17.0017604056      -32.7767186684      -34.3460287008  TIP3      3731            0.0000000000
     33445      3923  TIP3      H2            -17.2225794989      -33.1429417848      -35.8180779514  TIP3      3731            0.0000000000
     33446      3924  TIP3      OH2           -16.4083942221      -32.0919660798      -39.6016260671  TIP3      3732            0.0000000000
     33447      3924  TIP3      H1            -15.9338166090      -31.4917784210      -40.2290738621  TIP3      3732            0.0000000000
     33448      3924  TIP3      H2            -17.0797013196      -31.4279151771      -39.3499923514  TIP3      3732            0.0000000000
     33449      3925  TIP3      OH2            -6.4038948369      -28.0151403904      -29.7310276339  TIP3      3733            0.0000000000
     33450      3925  TIP3      H1             -5.9257862598      -28.7799424764      -30.1718534370  TIP3      3733            0.0000000000
     33451      3925  TIP3      H2             -6.6306617040      -28.7082161350      -29.0450776857  TIP3      3733            0.0000000000
     33452      3926  TIP3      OH2            -9.4453069586      -32.4819010178      -34.8450206079  TIP3      3734            0.0000000000
     33453      3926  TIP3      H1            -10.3763178232      -32.4699216947      -34.5288780496  TIP3      3734            0.0000000000
     33454      3926  TIP3      H2             -8.9466997460      -32.5899926245      -34.0192992912  TIP3      3734            0.0000000000
     33455      3927  TIP3      OH2           -14.6293011913      -30.9134584723      -35.9644969099  TIP3      3735            0.0000000000
     33456      3927  TIP3      H1            -15.5175252116      -30.7657579795      -36.3514882806  TIP3      3735            0.0000000000
     33457      3927  TIP3      H2            -14.3363370313      -31.7451271618      -36.3732179464  TIP3      3735            0.0000000000
     33458      3928  TIP3      OH2           -10.9850574567      -30.8533184494      -38.3204681225  TIP3      3736            0.0000000000
     33459      3928  TIP3      H1            -10.0256420877      -30.7555877148      -38.1734302300  TIP3      3736            0.0000000000
     33460      3928  TIP3      H2            -11.2312326100      -30.2151160472      -39.0256673397  TIP3      3736            0.0000000000
     33461      3929  TIP3      OH2            -5.0251649508      -33.3334744077      -31.5958586113  TIP3      3737            0.0000000000
     33462      3929  TIP3      H1             -5.6946435638      -33.1344421871      -30.8899533916  TIP3      3737            0.0000000000
     33463      3929  TIP3      H2             -5.5532251620      -33.4720450536      -32.3845277116  TIP3      3737            0.0000000000
     33464      3930  TIP3      OH2           -12.2113609287      -29.6420101012      -40.6567033429  TIP3      3738            0.0000000000
     33465      3930  TIP3      H1            -12.8051251504      -30.0350604706      -41.3604193089  TIP3      3738            0.0000000000
     33466      3930  TIP3      H2            -11.4417495949      -29.4770814119      -41.2117741671  TIP3      3738            0.0000000000
     33467      3931  TIP3      OH2            -1.8426200508      -17.5618218398      -25.2623093015  TIP3      3739            0.0000000000
     33468      3931  TIP3      H1             -1.5675470789      -17.1892741542      -26.1227713287  TIP3      3739            0.0000000000
     33469      3931  TIP3      H2             -1.1243568219      -17.2711941646      -24.6720413291  TIP3      3739            0.0000000000
     33470      3932  TIP3      OH2           -14.1677488278      -25.0928528333      -25.7088684415  TIP3      3740            0.0000000000
     33471      3932  TIP3      H1            -13.4519863801      -24.8789580140      -25.0832108696  TIP3      3740            0.0000000000
     33472      3932  TIP3      H2            -14.9444250435      -24.9952465109      -25.1174131270  TIP3      3740            0.0000000000
     33473      3933  TIP3      OH2            -8.1636505418      -29.7245659165      -32.9506719288  TIP3      3741            0.0000000000
     33474      3933  TIP3      H1             -7.5544880306      -30.2719384628      -33.4628907476  TIP3      3741            0.0000000000
     33475      3933  TIP3      H2             -8.2889666894      -30.2486524328      -32.1437651642  TIP3      3741            0.0000000000
     33476      3934  TIP3      OH2           -13.1599989578      -33.5416890322      -36.4943638407  TIP3      3742            0.0000000000
     33477      3934  TIP3      H1            -13.4750424598      -34.4602146564      -36.4979918888  TIP3      3742            0.0000000000
     33478      3934  TIP3      H2            -12.3790324848      -33.6159030046      -37.0534017271  TIP3      3742            0.0000000000
     33479      3935  TIP3      OH2            -9.5254094955      -31.3471483852      -30.5374980078  TIP3      3743            0.0000000000
     33480      3935  TIP3      H1            -10.3502500483      -30.8448406562      -30.4103787532  TIP3      3743            0.0000000000
     33481      3935  TIP3      H2             -8.9540703694      -31.0407976832      -29.8014593043  TIP3      3743            0.0000000000
     33482      3936  TIP3      OH2            -8.9254407686      -25.1755125330      -38.8047774151  TIP3      3744            0.0000000000
     33483      3936  TIP3      H1             -9.7261368618      -25.6337487355      -39.1449613375  TIP3      3744            0.0000000000
     33484      3936  TIP3      H2             -9.1484987885      -25.0582402524      -37.8622497259  TIP3      3744            0.0000000000
     33485      3937  TIP3      OH2            -1.7642380032      -25.9777017334      -30.0401703233  TIP3      3745            0.0000000000
     33486      3937  TIP3      H1             -1.1773858206      -25.4836346320      -30.6432239983  TIP3      3745            0.0000000000
     33487      3937  TIP3      H2             -2.6169178687      -25.9244606236      -30.5051509555  TIP3      3745            0.0000000000
     33488      3938  TIP3      OH2            -5.0361997531      -32.3637949653      -40.6669014358  TIP3      3746            0.0000000000
     33489      3938  TIP3      H1             -5.9953839959      -32.2262780265      -40.8101418833  TIP3      3746            0.0000000000
     33490      3938  TIP3      H2             -4.7709401587      -31.4909667012      -40.3181767547  TIP3      3746            0.0000000000
     33491      3939  TIP3      OH2            -7.4871485133      -24.8879991066      -27.6357214834  TIP3      3747            0.0000000000
     33492      3939  TIP3      H1             -7.7664725026      -25.3166570926      -26.8067455301  TIP3      3747            0.0000000000
     33493      3939  TIP3      H2             -7.6928830397      -23.9650607177      -27.4484049462  TIP3      3747            0.0000000000
     33494      3940  TIP3      OH2            -4.3443268019      -30.4630932608      -39.0125079872  TIP3      3748            0.0000000000
     33495      3940  TIP3      H1             -3.4628912631      -30.5620071425      -38.6043882708  TIP3      3748            0.0000000000
     33496      3940  TIP3      H2             -4.2767686744      -29.6284172717      -39.5027532229  TIP3      3748            0.0000000000
     33497      3941  TIP3      OH2           -13.8216425443      -25.7706660773      -33.0252132211  TIP3      3749            0.0000000000
     33498      3941  TIP3      H1            -13.1365744793      -25.8507888566      -33.7162388217  TIP3      3749            0.0000000000
     33499      3941  TIP3      H2            -13.7619922718      -26.6304931890      -32.5727961390  TIP3      3749            0.0000000000
     33500      3942  TIP3      OH2            -6.8299254136      -23.6908558232      -39.7642373447  TIP3      3750            0.0000000000
     33501      3942  TIP3      H1             -7.1972975176      -22.8476728411      -39.4283620386  TIP3      3750            0.0000000000
     33502      3942  TIP3      H2             -7.5681884941      -24.3167171623      -39.5883361770  TIP3      3750            0.0000000000
     33503      3943  TIP3      OH2           -16.8334516795      -27.3588649440      -27.7623676731  TIP3      3751            0.0000000000
     33504      3943  TIP3      H1            -16.6549366492      -27.8062217800      -26.9206372098  TIP3      3751            0.0000000000
     33505      3943  TIP3      H2            -17.4488670308      -27.9762560925      -28.1993959218  TIP3      3751            0.0000000000
     33506      3944  TIP3      OH2            -9.7871296672      -27.7714657698      -25.6214873289  TIP3      3752            0.0000000000
     33507      3944  TIP3      H1            -10.1155525500      -28.1302138438      -26.4515492304  TIP3      3752            0.0000000000
     33508      3944  TIP3      H2             -8.8855263088      -28.1486206967      -25.5769514046  TIP3      3752            0.0000000000
     33509      3945  TIP3      OH2            -5.1621492109      -22.4555002636      -27.6365165074  TIP3      3753            0.0000000000
     33510      3945  TIP3      H1             -6.0915683776      -22.2741230414      -27.8382199180  TIP3      3753            0.0000000000
     33511      3945  TIP3      H2             -5.1510910615      -22.2016853662      -26.6818999668  TIP3      3753            0.0000000000
     33512      3946  TIP3      OH2             0.6015006084      -30.2863440488      -39.3038170449  TIP3      3754            0.0000000000
     33513      3946  TIP3      H1             -0.0867297392      -30.5530051191      -39.9358311306  TIP3      3754            0.0000000000
     33514      3946  TIP3      H2              0.5973417215      -29.3178361349      -39.4922052960  TIP3      3754            0.0000000000
     33515      3947  TIP3      OH2             0.5277927217      -24.4483266662      -26.4128637719  TIP3      3755            0.0000000000
     33516      3947  TIP3      H1             -0.3465943154      -24.2056073323      -26.8008241284  TIP3      3755            0.0000000000
     33517      3947  TIP3      H2              1.0752285209      -24.4786285560      -27.2137951178  TIP3      3755            0.0000000000
     33518      3948  TIP3      OH2            -1.1674054618      -21.4576311287      -38.8446650906  TIP3      3756            0.0000000000
     33519      3948  TIP3      H1             -1.5474176220      -22.2875842414      -38.5254163800  TIP3      3756            0.0000000000
     33520      3948  TIP3      H2             -0.8733255725      -21.6574003276      -39.7544364016  TIP3      3756            0.0000000000
     33521      3949  TIP3      OH2            -3.9849312836      -26.6039247341      -31.7952557106  TIP3      3757            0.0000000000
     33522      3949  TIP3      H1             -4.9030598950      -26.9076869641      -31.8387431780  TIP3      3757            0.0000000000
     33523      3949  TIP3      H2             -3.5366325622      -27.4036705113      -32.1434168904  TIP3      3757            0.0000000000
     33524      3950  TIP3      OH2           -11.4543446838      -22.3174756845      -35.6428888598  TIP3      3758            0.0000000000
     33525      3950  TIP3      H1            -10.9484263458      -21.5131435315      -35.8475797107  TIP3      3758            0.0000000000
     33526      3950  TIP3      H2            -12.3311949106      -22.0799073763      -35.9714459205  TIP3      3758            0.0000000000
     33527      3951  TIP3      OH2           -15.7199592245      -27.3493274053      -41.1762514491  TIP3      3759            0.0000000000
     33528      3951  TIP3      H1            -15.0827276567      -26.8218719850      -40.6711907266  TIP3      3759            0.0000000000
     33529      3951  TIP3      H2            -16.5839554179      -27.1855999968      -40.7653565155  TIP3      3759            0.0000000000
     33530      3952  TIP3      OH2           -10.0097959176      -24.6477751369      -36.0765756623  TIP3      3760            0.0000000000
     33531      3952  TIP3      H1            -10.3500876609      -23.7320290616      -36.0445177119  TIP3      3760            0.0000000000
     33532      3952  TIP3      H2            -10.7591572475      -25.1371823393      -35.6840470844  TIP3      3760            0.0000000000
     33533      3953  TIP3      OH2            -9.5631475682      -20.4904905955      -29.7426359820  TIP3      3761            0.0000000000
     33534      3953  TIP3      H1             -9.1450536821      -19.6494277693      -29.9895800917  TIP3      3761            0.0000000000
     33535      3953  TIP3      H2             -8.9821254987      -20.7843052136      -29.0169816414  TIP3      3761            0.0000000000
     33536      3954  TIP3      OH2           -11.3569627402      -19.6502136641      -36.6029256419  TIP3      3762            0.0000000000
     33537      3954  TIP3      H1            -12.3207078508      -19.5155825312      -36.4570309232  TIP3      3762            0.0000000000
     33538      3954  TIP3      H2            -10.9963392801      -18.8191021724      -36.2380680499  TIP3      3762            0.0000000000
     33539      3955  TIP3      OH2            -5.8217862049      -24.5084899504      -29.8773301755  TIP3      3763            0.0000000000
     33540      3955  TIP3      H1             -6.3703600210      -24.7979502837      -29.0930462058  TIP3      3763            0.0000000000
     33541      3955  TIP3      H2             -5.3675274642      -25.3331557230      -30.1316030303  TIP3      3763            0.0000000000
     33542      3956  TIP3      OH2            -3.7708407827      -23.4497590911      -40.9843815440  TIP3      3764            0.0000000000
     33543      3956  TIP3      H1             -3.4559987161      -23.8737750663      -40.1607023974  TIP3      3764            0.0000000000
     33544      3956  TIP3      H2             -4.7262346540      -23.5809197728      -40.8792766956  TIP3      3764            0.0000000000
     33545      3957  TIP3      OH2            -3.2600014443      -19.8641617994      -27.5862315009  TIP3      3765            0.0000000000
     33546      3957  TIP3      H1             -3.9358991792      -20.3638640916      -28.0789290106  TIP3      3765            0.0000000000
     33547      3957  TIP3      H2             -3.0425865227      -19.1736520011      -28.2482986846  TIP3      3765            0.0000000000
     33548      3958  TIP3      OH2             0.7485664201      -19.0105915078      -40.7513286655  TIP3      3766            0.0000000000
     33549      3958  TIP3      H1              1.4468929448      -18.3768950097      -40.9928177136  TIP3      3766            0.0000000000
     33550      3958  TIP3      H2              0.0301085361      -18.4098469349      -40.4558604027  TIP3      3766            0.0000000000
     33551      3959  TIP3      OH2           -15.1838386238      -32.6388193919      -28.1787611153  TIP3      3767            0.0000000000
     33552      3959  TIP3      H1            -16.0941918379      -32.2957306519      -28.2481672873  TIP3      3767            0.0000000000
     33553      3959  TIP3      H2            -15.3208928011      -33.5134554891      -27.7777664525  TIP3      3767            0.0000000000
     33554      3960  TIP3      OH2            -2.9390892557      -24.7693995071      -38.7540740616  TIP3      3768            0.0000000000
     33555      3960  TIP3      H1             -3.1829848185      -25.5653091964      -38.2384667718  TIP3      3768            0.0000000000
     33556      3960  TIP3      H2             -1.9909780553      -24.7033129315      -38.5534759144  TIP3      3768            0.0000000000
     33557      3961  TIP3      OH2           -15.5531378085      -20.8398349827      -29.7904000374  TIP3      3769            0.0000000000
     33558      3961  TIP3      H1            -15.2725008859      -21.7680861324      -29.7802923847  TIP3      3769            0.0000000000
     33559      3961  TIP3      H2            -15.3050747879      -20.5556638250      -28.9029700827  TIP3      3769            0.0000000000
     33560      3962  TIP3      OH2           -10.8146584536      -22.7597494506      -40.0792629610  TIP3      3770            0.0000000000
     33561      3962  TIP3      H1            -10.5636401839      -23.3185993164      -39.3325322369  TIP3      3770            0.0000000000
     33562      3962  TIP3      H2            -10.7376092728      -21.8488861620      -39.7348054136  TIP3      3770            0.0000000000
     33563      3963  TIP3      OH2           -14.3233421212      -25.5325882852      -39.6209945985  TIP3      3771            0.0000000000
     33564      3963  TIP3      H1            -14.9869820459      -25.1351743597      -39.0169435969  TIP3      3771            0.0000000000
     33565      3963  TIP3      H2            -13.7599214863      -24.7705085035      -39.8388775624  TIP3      3771            0.0000000000
     33566      3964  TIP3      OH2            -6.5047728575      -33.2609453509      -29.3889808108  TIP3      3772            0.0000000000
     33567      3964  TIP3      H1             -5.8723309494      -32.8420486494      -28.7478317139  TIP3      3772            0.0000000000
     33568      3964  TIP3      H2             -6.8833818149      -34.0206694465      -28.9451808419  TIP3      3772            0.0000000000
     33569      3965  TIP3      OH2            -5.6437823137      -33.3131207433      -38.1694194527  TIP3      3773            0.0000000000
     33570      3965  TIP3      H1             -5.4713336410      -32.7945889624      -38.9811845924  TIP3      3773            0.0000000000
     33571      3965  TIP3      H2             -5.1525213399      -32.7968749955      -37.5073820404  TIP3      3773            0.0000000000
     33572      3966  TIP3      OH2            -8.0187632039      -21.1116132773      -39.3377815542  TIP3      3774            0.0000000000
     33573      3966  TIP3      H1             -8.8377566908      -20.5919463776      -39.2833623378  TIP3      3774            0.0000000000
     33574      3966  TIP3      H2             -7.4785022587      -20.6118420062      -39.9733316502  TIP3      3774            0.0000000000
     33575      3967  TIP3      OH2            -8.4705208411      -31.5621575698      -37.3500425925  TIP3      3775            0.0000000000
     33576      3967  TIP3      H1             -7.6986057585      -30.9636016148      -37.3353964634  TIP3      3775            0.0000000000
     33577      3967  TIP3      H2             -8.7250103463      -31.6399145004      -36.4112160234  TIP3      3775            0.0000000000
     33578      3968  TIP3      OH2            -8.2190108733      -30.6482935428      -27.9415461813  TIP3      3776            0.0000000000
     33579      3968  TIP3      H1             -7.8685837704      -29.9330886658      -27.3761505834  TIP3      3776            0.0000000000
     33580      3968  TIP3      H2             -7.3623106738      -31.0945398386      -28.1571762994  TIP3      3776            0.0000000000
     33581      3969  TIP3      OH2            -7.5861969544      -34.4727965865      -36.3735235467  TIP3      3777            0.0000000000
     33582      3969  TIP3      H1             -7.9392091935      -33.7672606417      -35.8040556633  TIP3      3777            0.0000000000
     33583      3969  TIP3      H2             -6.9560190923      -33.9477263968      -36.9251195851  TIP3      3777            0.0000000000
     33584      3970  TIP3      OH2           -10.6503217484      -20.0749632351      -39.3236902942  TIP3      3778            0.0000000000
     33585      3970  TIP3      H1            -10.4770844601      -19.2535826948      -39.8289858226  TIP3      3778            0.0000000000
     33586      3970  TIP3      H2            -10.8920098841      -19.7328142984      -38.4329234229  TIP3      3778            0.0000000000
     33587      3971  TIP3      OH2           -11.9473406773      -33.4007741382      -39.7509164760  TIP3      3779            0.0000000000
     33588      3971  TIP3      H1            -12.0409651246      -32.4866559188      -39.4064465530  TIP3      3779            0.0000000000
     33589      3971  TIP3      H2            -11.0297177698      -33.5697314286      -39.4662112038  TIP3      3779            0.0000000000
     33590      3972  TIP3      OH2            -1.6876311439      -32.6581318988      -27.3217187055  TIP3      3780            0.0000000000
     33591      3972  TIP3      H1             -2.6293500684      -32.3410370832      -27.4121825288  TIP3      3780            0.0000000000
     33592      3972  TIP3      H2             -1.4412274490      -32.6541749708      -28.2600782693  TIP3      3780            0.0000000000
     33593      3973  TIP3      OH2            -3.0897366019      -28.8574341440      -33.3701655834  TIP3      3781            0.0000000000
     33594      3973  TIP3      H1             -3.9561103813      -29.2864576405      -33.5261373737  TIP3      3781            0.0000000000
     33595      3973  TIP3      H2             -2.6922139122      -29.5237937275      -32.7605380901  TIP3      3781            0.0000000000
     33596      3974  TIP3      OH2           -13.7219959444      -22.9227899624      -40.7050963224  TIP3      3782            0.0000000000
     33597      3974  TIP3      H1            -13.0656837512      -22.2927343710      -40.3917605140  TIP3      3782            0.0000000000
     33598      3974  TIP3      H2            -13.2066733214      -23.3940477941      -41.3892994851  TIP3      3782            0.0000000000
     33599      3975  TIP3      OH2           -15.9520880470      -30.0165249528      -41.0468207063  TIP3      3783            0.0000000000
     33600      3975  TIP3      H1            -15.3565464628      -29.3355823625      -41.4029803055  TIP3      3783            0.0000000000
     33601      3975  TIP3      H2            -16.1745126387      -30.4618960007      -41.8767208906  TIP3      3783            0.0000000000
     33602      3976  TIP3      OH2            -2.0627474401      -19.5969676862      -31.6346874751  TIP3      3784            0.0000000000
     33603      3976  TIP3      H1             -2.1771197647      -18.9144233081      -32.3215327447  TIP3      3784            0.0000000000
     33604      3976  TIP3      H2             -1.1061246009      -19.5401818470      -31.4518758130  TIP3      3784            0.0000000000
     33605      3977  TIP3      OH2           -14.8071168961      -35.3106560637      -32.7768017267  TIP3      3785            0.0000000000
     33606      3977  TIP3      H1            -14.7581365450      -35.4123555815      -33.7568497955  TIP3      3785            0.0000000000
     33607      3977  TIP3      H2            -14.9619186759      -36.2330094045      -32.5521682461  TIP3      3785            0.0000000000
     33608      3978  TIP3      OH2           -15.6142337366      -21.5518122116      -36.6901067674  TIP3      3786            0.0000000000
     33609      3978  TIP3      H1            -16.4704335803      -21.0991204685      -36.7222323042  TIP3      3786            0.0000000000
     33610      3978  TIP3      H2            -15.1371866769      -21.0782536744      -37.3829468168  TIP3      3786            0.0000000000
     33611      3979  TIP3      OH2           -16.4004781234      -18.8893216926      -25.3868595921  TIP3      3787            0.0000000000
     33612      3979  TIP3      H1            -15.7896840756      -19.1129057290      -24.6567286697  TIP3      3787            0.0000000000
     33613      3979  TIP3      H2            -16.8097588268      -19.7545588320      -25.5813147201  TIP3      3787            0.0000000000
     33614      3980  TIP3      OH2           -11.7454418695      -20.0086627384      -23.7958797448  TIP3      3788            0.0000000000
     33615      3980  TIP3      H1            -10.9619999915      -20.4768712604      -23.4665142281  TIP3      3788            0.0000000000
     33616      3980  TIP3      H2            -11.7761270306      -20.2704607599      -24.7378457122  TIP3      3788            0.0000000000
     33617      3981  TIP3      OH2            -7.2514972114      -20.4055997968      -41.8152603800  TIP3      3789            0.0000000000
     33618      3981  TIP3      H1             -8.0831925656      -20.9037385848      -41.9144328862  TIP3      3789            0.0000000000
     33619      3981  TIP3      H2             -6.7518395586      -20.8632583389      -42.4903766371  TIP3      3789            0.0000000000
     33620      3982  TIP3      OH2            -5.2099775602      -21.5937970959      -25.0572080962  TIP3      3790            0.0000000000
     33621      3982  TIP3      H1             -5.5208753344      -22.4799776288      -24.7694332506  TIP3      3790            0.0000000000
     33622      3982  TIP3      H2             -4.4483638833      -21.5110341132      -24.4630008216  TIP3      3790            0.0000000000
     33623      3983  TIP3      OH2            -3.0392083186      -20.7181298713      -42.2188040620  TIP3      3791            0.0000000000
     33624      3983  TIP3      H1             -2.7611182809      -21.4916406478      -41.6923896768  TIP3      3791            0.0000000000
     33625      3983  TIP3      H2             -2.2478843824      -20.4855510376      -42.7216709499  TIP3      3791            0.0000000000
     33626      3984  TIP3      OH2           -16.5014831097      -25.1438609944      -24.4052857759  TIP3      3792            0.0000000000
     33627      3984  TIP3      H1            -16.3297155080      -26.0344959869      -24.7410138020  TIP3      3792            0.0000000000
     33628      3984  TIP3      H2            -17.2381304344      -24.8569420896      -24.9758133089  TIP3      3792            0.0000000000
     33629      3985  TIP3      OH2           -12.0608014947      -24.7130081713      -42.2420521482  TIP3      3793            0.0000000000
     33630      3985  TIP3      H1            -12.0198383300      -25.5594107923      -41.7841668448  TIP3      3793            0.0000000000
     33631      3985  TIP3      H2            -11.5031031309      -24.9351606956      -43.0143523618  TIP3      3793            0.0000000000
     33632      3986  TIP3      OH2            -9.7362229132      -25.1327711836      -25.0243599884  TIP3      3794            0.0000000000
     33633      3986  TIP3      H1            -10.1200938322      -24.8374352085      -25.8703403645  TIP3      3794            0.0000000000
     33634      3986  TIP3      H2             -9.7038214154      -26.1222622235      -25.1230232005  TIP3      3794            0.0000000000
     33635      3987  TIP3      OH2            -4.0771034618      -25.2640034190      -27.6123759069  TIP3      3795            0.0000000000
     33636      3987  TIP3      H1             -3.2891950701      -24.6848153245      -27.6978074367  TIP3      3795            0.0000000000
     33637      3987  TIP3      H2             -4.7791482800      -24.6089515571      -27.5667837764  TIP3      3795            0.0000000000
     33638      3988  TIP3      OH2           -15.6200615185      -27.9100990868      -25.0292442405  TIP3      3796            0.0000000000
     33639      3988  TIP3      H1            -15.1602153694      -28.7513995014      -25.1435531600  TIP3      3796            0.0000000000
     33640      3988  TIP3      H2            -15.8766728185      -27.8736809358      -24.1157996478  TIP3      3796            0.0000000000
     33641      3989  TIP3      OH2           -10.9414088241      -26.7520667547      -39.9582433055  TIP3      3797            0.0000000000
     33642      3989  TIP3      H1            -11.4561185781      -27.2960747456      -39.3449527231  TIP3      3797            0.0000000000
     33643      3989  TIP3      H2            -10.6539825015      -27.4430583293      -40.6053494904  TIP3      3797            0.0000000000
     33644      3990  TIP3      OH2           -11.6808240600      -28.9601229062      -27.6786359391  TIP3      3798            0.0000000000
     33645      3990  TIP3      H1            -12.2607530120      -28.2291442136      -27.4105478904  TIP3      3798            0.0000000000
     33646      3990  TIP3      H2            -11.2715276943      -28.5963542431      -28.4835711906  TIP3      3798            0.0000000000
     33647      3991  TIP3      OH2            -9.8656443315      -28.5132344315      -41.7558311598  TIP3      3799            0.0000000000
     33648      3991  TIP3      H1            -10.0041551574      -28.7372907566      -42.6882946008  TIP3      3799            0.0000000000
     33649      3991  TIP3      H2             -8.8888545411      -28.4523129136      -41.6684594445  TIP3      3799            0.0000000000
     33650      3992  TIP3      OH2            -6.5907974040      -26.3814939623      -24.2788154780  TIP3      3800            0.0000000000
     33651      3992  TIP3      H1             -5.6314697741      -26.3842621785      -24.4277345231  TIP3      3800            0.0000000000
     33652      3992  TIP3      H2             -6.7906364321      -27.1903941057      -23.7695132816  TIP3      3800            0.0000000000
     33653      3993  TIP3      OH2            -0.7033342515      -26.0876998935       42.7431583423  TIP3      3801            0.0000000000
     33654      3993  TIP3      H1             -0.7610941128      -26.5977435047       41.9202603884  TIP3      3801            0.0000000000
     33655      3993  TIP3      H2             -0.4462740716      -25.1916514112       42.4884450535  TIP3      3801            0.0000000000
     33656      3994  TIP3      OH2           -11.3341808904      -31.5534839864      -26.5954669544  TIP3      3802            0.0000000000
     33657      3994  TIP3      H1            -11.1560544071      -32.2845463599      -27.2101504096  TIP3      3802            0.0000000000
     33658      3994  TIP3      H2            -11.2929135891      -30.7620111212      -27.1677732367  TIP3      3802            0.0000000000
     33659      3995  TIP3      OH2           -10.9054402924      -33.2119263557      -29.0708303523  TIP3      3803            0.0000000000
     33660      3995  TIP3      H1            -10.3699551269      -32.7283439188      -29.7438567560  TIP3      3803            0.0000000000
     33661      3995  TIP3      H2            -11.7950137833      -33.2907656315      -29.4828993820  TIP3      3803            0.0000000000
     33662      3996  TIP3      OH2            -9.3306527526      -27.7299357112      -28.8261335448  TIP3      3804            0.0000000000
     33663      3996  TIP3      H1             -8.5584793229      -27.8961228420      -29.3749138179  TIP3      3804            0.0000000000
     33664      3996  TIP3      H2             -9.6961106749      -26.8855149292      -29.1334461412  TIP3      3804            0.0000000000
     33665      3997  TIP3      OH2            -4.9114790439      -29.9207477139      -23.7789949782  TIP3      3805            0.0000000000
     33666      3997  TIP3      H1             -4.7386984307      -30.8727636652      -23.9032754035  TIP3      3805            0.0000000000
     33667      3997  TIP3      H2             -4.0369673888      -29.5075759301      -23.8944423225  TIP3      3805            0.0000000000
     33668      3998  TIP3      OH2            -3.6248073757      -27.1930756718      -25.7448063358  TIP3      3806            0.0000000000
     33669      3998  TIP3      H1             -3.8437052408      -26.4304346034      -26.3130848897  TIP3      3806            0.0000000000
     33670      3998  TIP3      H2             -2.6574549232      -27.1577492614      -25.8552476728  TIP3      3806            0.0000000000
     33671      3999  TIP3      OH2           -12.8644092118      -30.3308135374      -24.6254361481  TIP3      3807            0.0000000000
     33672      3999  TIP3      H1            -13.5871292006      -30.9144245402      -24.8901193707  TIP3      3807            0.0000000000
     33673      3999  TIP3      H2            -12.1683929270      -30.6311986923      -25.2501584787  TIP3      3807            0.0000000000
     33674      4000  TIP3      OH2           -10.1856005993      -35.5968934751      -28.4302159576  TIP3      3808            0.0000000000
     33675      4000  TIP3      H1            -10.2843115898      -34.6403120413      -28.6794687272  TIP3      3808            0.0000000000
     33676      4000  TIP3      H2            -10.8438052305      -35.9782191113      -29.0284100926  TIP3      3808            0.0000000000
     33677      4001  TIP3      OH2            -8.8089941132      -31.4719473475      -25.0674501624  TIP3      3809            0.0000000000
     33678      4001  TIP3      H1             -9.1191259245      -31.6408008473      -24.1571567997  TIP3      3809            0.0000000000
     33679      4001  TIP3      H2             -9.6214576160      -31.6228103169      -25.5783488221  TIP3      3809            0.0000000000
     33680      4002  TIP3      OH2            -6.0774477586      -32.3163670035      -25.9821797274  TIP3      3810            0.0000000000
     33681      4002  TIP3      H1             -7.0449432304      -32.2237097538      -25.8601311732  TIP3      3810            0.0000000000
     33682      4002  TIP3      H2             -5.8700818658      -32.9373701672      -25.2739804610  TIP3      3810            0.0000000000
     33683      4003  TIP3      OH2           -14.7335714492      -32.3896029005      -24.9284331875  TIP3      3811            0.0000000000
     33684      4003  TIP3      H1            -14.4727304955      -33.1072764229      -25.5472423325  TIP3      3811            0.0000000000
     33685      4003  TIP3      H2            -14.7845862052      -32.9074867235      -24.1057973106  TIP3      3811            0.0000000000
     33686      4004  TIP3      OH2            -9.8937092577       36.6366276747      -25.9327887539  TIP3      3812            0.0000000000
     33687      4004  TIP3      H1             -9.1950592754       35.9786968696      -25.8973682321  TIP3      3812            0.0000000000
     33688      4004  TIP3      H2             -9.9840195043       36.8808810416      -26.8692617628  TIP3      3812            0.0000000000
     33689      4005  TIP3      OH2           -10.0356469497      -17.8506127012      -40.7428659233  TIP3      3813            0.0000000000
     33690      4005  TIP3      H1             -9.0649341801      -17.7434332233      -40.6083560516  TIP3      3813            0.0000000000
     33691      4005  TIP3      H2            -10.2130655498      -17.1750216372      -41.3948210611  TIP3      3813            0.0000000000
     33692      4006  TIP3      OH2           -16.4620030511      -23.2521794652      -41.2120007353  TIP3      3814            0.0000000000
     33693      4006  TIP3      H1            -15.5025553279      -23.1619028626      -40.9969674143  TIP3      3814            0.0000000000
     33694      4006  TIP3      H2            -16.4300232605      -23.8524944960      -41.9620977532  TIP3      3814            0.0000000000
     33695      4007  TIP3      OH2           -17.7112056507      -17.8749395291      -36.2368127398  TIP3      3815            0.0000000000
     33696      4007  TIP3      H1            -18.4258931128      -18.3603838050      -36.7048829226  TIP3      3815            0.0000000000
     33697      4007  TIP3      H2            -17.4249187241      -18.5343646099      -35.5795793334  TIP3      3815            0.0000000000
     33698      4008  TIP3      OH2           -16.8852230882      -19.7481407035      -34.3700964586  TIP3      3816            0.0000000000
     33699      4008  TIP3      H1            -17.2368851860      -20.6262388200      -34.1671894706  TIP3      3816            0.0000000000
     33700      4008  TIP3      H2            -16.6634817344      -19.4156996391      -33.4839726315  TIP3      3816            0.0000000000
     33701      4009  TIP3      OH2             0.6614177747      -18.9443007903      -31.4453221839  TIP3      3817            0.0000000000
     33702      4009  TIP3      H1              0.6404146479      -18.8174928176      -30.4762771978  TIP3      3817            0.0000000000
     33703      4009  TIP3      H2              1.3768634826      -18.3725314814      -31.6660681235  TIP3      3817            0.0000000000
     33704      4010  TIP3      OH2             0.2788348975      -19.3465643532      -28.5378270221  TIP3      3818            0.0000000000
     33705      4010  TIP3      H1             -0.2599385101      -20.0983712323      -28.8721386714  TIP3      3818            0.0000000000
     33706      4010  TIP3      H2              0.7271915076      -19.7821229101      -27.8051942225  TIP3      3818            0.0000000000
     33707      4011  TIP3      OH2            -0.0000488080      -25.3128626514      -38.3897521925  TIP3      3819            0.0000000000
     33708      4011  TIP3      H1              0.8491733289      -24.8989230624      -38.1747351570  TIP3      3819            0.0000000000
     33709      4011  TIP3      H2             -0.0293168235      -26.0228378032      -37.7099893094  TIP3      3819            0.0000000000
     33710      4012  TIP3      OH2             0.3484611345      -27.2285744489      -36.5029387228  TIP3      3820            0.0000000000
     33711      4012  TIP3      H1             -0.4006214682      -27.7383210760      -36.1184092684  TIP3      3820            0.0000000000
     33712      4012  TIP3      H2              0.9476590271      -27.0940446425      -35.7402708808  TIP3      3820            0.0000000000
     33713      4013  TIP3      OH2             0.0894491493      -24.5391736731      -31.5368410659  TIP3      3821            0.0000000000
     33714      4013  TIP3      H1              0.9215686205      -24.9065634099      -31.8877346523  TIP3      3821            0.0000000000
     33715      4013  TIP3      H2              0.2421825238      -23.5831692856      -31.6904565421  TIP3      3821            0.0000000000
     33716      4014  TIP3      OH2            -1.3334104385      -21.6293615537      -29.2494999036  TIP3      3822            0.0000000000
     33717      4014  TIP3      H1             -2.0134566169      -21.2876783244      -28.6454074571  TIP3      3822            0.0000000000
     33718      4014  TIP3      H2             -1.8870043733      -22.0369330276      -29.9468173072  TIP3      3822            0.0000000000
     33719      4015  TIP3      OH2             0.6361404842      -27.4243773345      -40.1317206610  TIP3      3823            0.0000000000
     33720      4015  TIP3      H1              0.0577098975      -27.0356979301      -40.8135795696  TIP3      3823            0.0000000000
     33721      4015  TIP3      H2              0.5778777270      -26.7145414047      -39.4552065564  TIP3      3823            0.0000000000
     33722      4016  TIP3      OH2            -1.3170464021      -30.1593272777      -41.4774234596  TIP3      3824            0.0000000000
     33723      4016  TIP3      H1             -0.9467353510      -29.5214363537      -42.1159024366  TIP3      3824            0.0000000000
     33724      4016  TIP3      H2             -1.2032127175      -30.9663020345      -42.0017655061  TIP3      3824            0.0000000000
     33725      4017  TIP3      OH2            -1.8277951638      -28.7535560434      -35.9370410881  TIP3      3825            0.0000000000
     33726      4017  TIP3      H1             -1.9850573759      -29.7084684261      -35.9686648844  TIP3      3825            0.0000000000
     33727      4017  TIP3      H2             -2.1667125234      -28.5349624346      -35.0482924600  TIP3      3825            0.0000000000
     33728      4018  TIP3      OH2           -16.8246034955      -26.6713441738      -31.8776967273  TIP3      3826            0.0000000000
     33729      4018  TIP3      H1            -16.6426873010      -26.7513773082      -32.8399765259  TIP3      3826            0.0000000000
     33730      4018  TIP3      H2            -15.9327358301      -26.8418231592      -31.5185017066  TIP3      3826            0.0000000000
     33731      4019  TIP3      OH2            -0.9785412623      -26.7879351773      -26.3618539750  TIP3      3827            0.0000000000
     33732      4019  TIP3      H1             -0.3849406134      -27.5125015061      -26.0805293711  TIP3      3827            0.0000000000
     33733      4019  TIP3      H2             -0.4024957919      -26.0148423207      -26.2230325890  TIP3      3827            0.0000000000
     33734      4020  TIP3      OH2             0.5390983506      -28.8882300482      -25.6237060549  TIP3      3828            0.0000000000
     33735      4020  TIP3      H1             -0.3558402526      -29.2768032702      -25.7525233978  TIP3      3828            0.0000000000
     33736      4020  TIP3      H2              1.0905600018      -29.6848370323      -25.6614298512  TIP3      3828            0.0000000000
     33737      4021  TIP3      OH2            -1.7162136080      -32.7765186687      -42.4999515942  TIP3      3829            0.0000000000
     33738      4021  TIP3      H1             -1.1553526717      -33.0663368785      -41.7529538248  TIP3      3829            0.0000000000
     33739      4021  TIP3      H2             -2.6504113634      -32.8931896149      -42.2396758104  TIP3      3829            0.0000000000
     33740      4022  TIP3      OH2            -2.1669626301      -31.1560922389      -37.4699775882  TIP3      3830            0.0000000000
     33741      4022  TIP3      H1             -1.8626020672      -32.0750251865      -37.3195257988  TIP3      3830            0.0000000000
     33742      4022  TIP3      H2             -1.3833110997      -30.7546755310      -37.8514159829  TIP3      3830            0.0000000000
     33743      4023  TIP3      OH2            -1.5164560614      -30.6147796187      -32.0461832669  TIP3      3831            0.0000000000
     33744      4023  TIP3      H1             -0.5614827875      -30.3812932445      -32.0403085221  TIP3      3831            0.0000000000
     33745      4023  TIP3      H2             -1.7433807582      -30.4922455154      -31.1081959118  TIP3      3831            0.0000000000
     33746      4024  TIP3      OH2            -1.4624266008      -29.8860569341      -29.2405592768  TIP3      3832            0.0000000000
     33747      4024  TIP3      H1             -2.3501639002      -29.6164641650      -28.9113572922  TIP3      3832            0.0000000000
     33748      4024  TIP3      H2             -1.0488125830      -29.0225315569      -29.4651629526  TIP3      3832            0.0000000000
     33749      4025  TIP3      OH2           -17.2184672749      -31.3571231702      -25.7154738758  TIP3      3833            0.0000000000
     33750      4025  TIP3      H1            -16.2829929218      -31.5990366416      -25.5733701626  TIP3      3833            0.0000000000
     33751      4025  TIP3      H2            -17.6687221919      -32.1870357979      -25.4485923234  TIP3      3833            0.0000000000
     33752      4026  TIP3      OH2             0.8032701392      -35.8782216877      -23.8761001627  TIP3      3834            0.0000000000
     33753      4026  TIP3      H1              1.1639412399      -36.4734584050      -24.5359245878  TIP3      3834            0.0000000000
     33754      4026  TIP3      H2              0.8990890460      -34.9986455361      -24.2982338156  TIP3      3834            0.0000000000
     33755      4027  TIP3      OH2            -1.4695452628      -33.8760906119      -37.4611883184  TIP3      3835            0.0000000000
     33756      4027  TIP3      H1             -1.2959191494      -34.3138260001      -36.5916386242  TIP3      3835            0.0000000000
     33757      4027  TIP3      H2             -2.1054598038      -34.5050868081      -37.8719430347  TIP3      3835            0.0000000000
     33758      4028  TIP3      OH2           -16.0385923732      -33.0348022476      -32.9077742050  TIP3      3836            0.0000000000
     33759      4028  TIP3      H1            -15.5948937065      -33.8733778385      -32.6280057285  TIP3      3836            0.0000000000
     33760      4028  TIP3      H2            -15.4732317558      -32.3788039629      -32.4827167867  TIP3      3836            0.0000000000
     33761      4029  TIP3      OH2           -17.7255627455      -30.0823459597      -31.8312369997  TIP3      3837            0.0000000000
     33762      4029  TIP3      H1            -17.1636520700      -30.3265050984      -32.5955104329  TIP3      3837            0.0000000000
     33763      4029  TIP3      H2            -17.2663663486      -29.2728946197      -31.5630537410  TIP3      3837            0.0000000000
     33764      4030  TIP3      OH2             0.3578922462      -33.7764798402      -25.5981550185  TIP3      3838            0.0000000000
     33765      4030  TIP3      H1             -0.5772275290      -33.4957124744      -25.6096895497  TIP3      3838            0.0000000000
     33766      4030  TIP3      H2              0.3956706473      -34.3159051694      -26.3960868766  TIP3      3838            0.0000000000
     33767      4031  TIP3      OH2             0.3127366586      -33.8052727220      -40.9396047289  TIP3      3839            0.0000000000
     33768      4031  TIP3      H1              0.7790480837      -34.5646902485      -41.3239510707  TIP3      3839            0.0000000000
     33769      4031  TIP3      H2              1.0346027263      -33.2366590045      -40.7069936275  TIP3      3839            0.0000000000
     33770      4032  TIP3      OH2           -17.3570080931      -33.8640680865      -37.7637420584  TIP3      3840            0.0000000000
     33771      4032  TIP3      H1            -18.3000872962      -33.6500392527      -37.8950901994  TIP3      3840            0.0000000000
     33772      4032  TIP3      H2            -16.9394605961      -33.3462589469      -38.4852666345  TIP3      3840            0.0000000000
     33773      4033  TIP3      OH2            -2.6235360395      -18.8701849332      -35.8011008868  TIP3      3841            0.0000000000
     33774      4033  TIP3      H1             -1.9507221511      -19.1801447523      -36.4330133341  TIP3      3841            0.0000000000
     33775      4033  TIP3      H2             -2.1101784594      -18.3647562244      -35.1597930678  TIP3      3841            0.0000000000
     33776      4034  TIP3      OH2           -17.4040133955      -35.0868121779      -29.4413973091  TIP3      3842            0.0000000000
     33777      4034  TIP3      H1            -18.0827518953      -35.3292513328      -28.7928862961  TIP3      3842            0.0000000000
     33778      4034  TIP3      H2            -17.8837726561      -34.4868335631      -30.0398445914  TIP3      3842            0.0000000000
     33779      4035  TIP3      OH2           -15.1748533613      -21.9392015446      -25.2875340873  TIP3      3843            0.0000000000
     33780      4035  TIP3      H1            -16.0154422838      -21.7464786591      -25.7302656291  TIP3      3843            0.0000000000
     33781      4035  TIP3      H2            -15.4609856659      -22.0311191902      -24.3739354092  TIP3      3843            0.0000000000
     33782      4036  TIP3      OH2           -12.2711602237      -20.9666382400      -29.0296440966  TIP3      3844            0.0000000000
     33783      4036  TIP3      H1            -12.6150132144      -20.1018968528      -29.2964052327  TIP3      3844            0.0000000000
     33784      4036  TIP3      H2            -11.3468022262      -20.8708672949      -29.3322666489  TIP3      3844            0.0000000000
     33785      4037  TIP3      OH2            -7.9315490917      -19.5440241715      -26.1255138766  TIP3      3845            0.0000000000
     33786      4037  TIP3      H1             -7.7867963482      -19.8784944223      -25.2082464373  TIP3      3845            0.0000000000
     33787      4037  TIP3      H2             -7.0401799074      -19.2331604095      -26.3708429497  TIP3      3845            0.0000000000
     33788      4038  TIP3      OH2            -5.6585644352      -18.2675542914      -26.7987473117  TIP3      3846            0.0000000000
     33789      4038  TIP3      H1             -4.9303652535      -18.8597940166      -27.0479725451  TIP3      3846            0.0000000000
     33790      4038  TIP3      H2             -5.2832130757      -17.8373924635      -26.0066448988  TIP3      3846            0.0000000000
     33791      4039  TIP3      OH2            -0.6586448268      -35.6358108226      -27.8081532025  TIP3      3847            0.0000000000
     33792      4039  TIP3      H1             -1.5005296742      -35.3386141625      -28.1824090482  TIP3      3847            0.0000000000
     33793      4039  TIP3      H2             -0.4751086885      -36.4831532400      -28.2637756877  TIP3      3847            0.0000000000
     33794      4040  TIP3      OH2           -14.8425709073      -17.7210392809      -29.0201916092  TIP3      3848            0.0000000000
     33795      4040  TIP3      H1            -15.5769768550      -17.2269801978      -29.4208717438  TIP3      3848            0.0000000000
     33796      4040  TIP3      H2            -15.1636868231      -17.9153241386      -28.1267165184  TIP3      3848            0.0000000000
     33797      4041  TIP3      OH2           -12.3791357700      -18.1429765341      -29.9522545855  TIP3      3849            0.0000000000
     33798      4041  TIP3      H1            -13.2722196145      -17.9990687293      -29.5586084601  TIP3      3849            0.0000000000
     33799      4041  TIP3      H2            -12.4387214400      -17.5535670191      -30.7278962796  TIP3      3849            0.0000000000
     33800      4042  TIP3      OH2            -7.6729385713      -18.2496163763      -30.7792366552  TIP3      3850            0.0000000000
     33801      4042  TIP3      H1             -8.1367986003      -17.6972244859      -31.4313132058  TIP3      3850            0.0000000000
     33802      4042  TIP3      H2             -7.5376454953      -17.6067971534      -30.0483521891  TIP3      3850            0.0000000000
     33803      4043  TIP3      OH2            -5.3780564615      -19.4250126784      -29.7952452233  TIP3      3851            0.0000000000
     33804      4043  TIP3      H1             -6.2471293502      -19.1263166007      -30.1135799312  TIP3      3851            0.0000000000
     33805      4043  TIP3      H2             -4.9028289212      -18.5718229045      -29.8466671036  TIP3      3851            0.0000000000
     33806      4044  TIP3      OH2            -2.8086912682      -17.8375531916      -29.5310206075  TIP3      3852            0.0000000000
     33807      4044  TIP3      H1             -2.8640907526      -16.8792953366      -29.7654718824  TIP3      3852            0.0000000000
     33808      4044  TIP3      H2             -2.5847646495      -18.2210791439      -30.3988078032  TIP3      3852            0.0000000000
     33809      4045  TIP3      OH2           -15.3978557342      -19.0709232657      -32.0844621282  TIP3      3853            0.0000000000
     33810      4045  TIP3      H1            -15.4737497486      -19.5291857360      -31.2196462002  TIP3      3853            0.0000000000
     33811      4045  TIP3      H2            -14.5828361185      -19.4452291833      -32.4753911514  TIP3      3853            0.0000000000
     33812      4046  TIP3      OH2           -13.3141073543      -20.3599292718      -33.4309387770  TIP3      3854            0.0000000000
     33813      4046  TIP3      H1            -13.4834305615      -21.2937882616      -33.2041339044  TIP3      3854            0.0000000000
     33814      4046  TIP3      H2            -12.4601084964      -20.2105936812      -32.9731453883  TIP3      3854            0.0000000000
     33815      4047  TIP3      OH2           -10.7040221149      -19.8751818665      -32.5559215931  TIP3      3855            0.0000000000
     33816      4047  TIP3      H1            -10.5653619374      -20.8000445163      -32.8257044693  TIP3      3855            0.0000000000
     33817      4047  TIP3      H2            -10.6758174423      -19.9317667971      -31.5899099227  TIP3      3855            0.0000000000
     33818      4048  TIP3      OH2            -7.3645156904      -34.1890984244      -33.4410423591  TIP3      3856            0.0000000000
     33819      4048  TIP3      H1             -7.9768388200      -34.8794071516      -33.1729337612  TIP3      3856            0.0000000000
     33820      4048  TIP3      H2             -6.6909594207      -34.6638360907      -33.9638781640  TIP3      3856            0.0000000000
     33821      4049  TIP3      OH2            -2.1331315418      -36.1568111886      -33.3141949077  TIP3      3857            0.0000000000
     33822      4049  TIP3      H1             -1.5031349831      -35.6049007439      -33.8288472456  TIP3      3857            0.0000000000
     33823      4049  TIP3      H2             -2.9858059079      -35.7907846125      -33.5544407879  TIP3      3857            0.0000000000
     33824      4050  TIP3      OH2            -0.4167788496      -34.9096117397      -35.0882284073  TIP3      3858            0.0000000000
     33825      4050  TIP3      H1              0.2233065750      -35.5009639528      -35.4921686007  TIP3      3858            0.0000000000
     33826      4050  TIP3      H2              0.0722206240      -34.0696833364      -34.9802661945  TIP3      3858            0.0000000000
     33827      4051  TIP3      OH2           -14.9241164584      -35.5779595679      -35.5294662187  TIP3      3859            0.0000000000
     33828      4051  TIP3      H1            -15.6851938058      -35.8093259667      -36.0835150368  TIP3      3859            0.0000000000
     33829      4051  TIP3      H2            -14.4296095621      -36.4172358892      -35.5327569237  TIP3      3859            0.0000000000
     33830      4052  TIP3      OH2           -16.0923922595      -35.8282035541      -39.8207946649  TIP3      3860            0.0000000000
     33831      4052  TIP3      H1            -15.6485936481      -35.1860294258      -40.4034691648  TIP3      3860            0.0000000000
     33832      4052  TIP3      H2            -16.7245157035      -35.2860942658      -39.3316578469  TIP3      3860            0.0000000000
     33833      4053  TIP3      OH2           -10.3343873791      -35.7590749095      -35.7903056500  TIP3      3861            0.0000000000
     33834      4053  TIP3      H1             -9.4995884580      -35.2655382806      -35.8360714561  TIP3      3861            0.0000000000
     33835      4053  TIP3      H2            -10.4718768871      -35.8774977435      -34.8497525051  TIP3      3861            0.0000000000
     33836      4054  TIP3      OH2            -4.9851614245      -35.3149870655      -33.9958096182  TIP3      3862            0.0000000000
     33837      4054  TIP3      H1             -4.8003929607      -35.3247210462      -34.9408924592  TIP3      3862            0.0000000000
     33838      4054  TIP3      H2             -5.0260162612      -36.2936821657      -33.9013006867  TIP3      3862            0.0000000000
     33839      4055  TIP3      OH2            -3.4219908564      -35.5795228642      -38.4571674532  TIP3      3863            0.0000000000
     33840      4055  TIP3      H1             -4.1908987581      -35.0202017600      -38.6454816271  TIP3      3863            0.0000000000
     33841      4055  TIP3      H2             -3.8205718093      -36.4545701152      -38.3131432249  TIP3      3863            0.0000000000
     33842      4056  TIP3      OH2           -16.1944936604      -19.8862665462      -38.8398193160  TIP3      3864            0.0000000000
     33843      4056  TIP3      H1            -16.8753905692      -19.8888834530      -39.5397221078  TIP3      3864            0.0000000000
     33844      4056  TIP3      H2            -16.1792618447      -18.9359140160      -38.6688031903  TIP3      3864            0.0000000000
     33845      4057  TIP3      OH2           -14.3035342159      -34.1257369801      -41.2672260624  TIP3      3865            0.0000000000
     33846      4057  TIP3      H1            -13.7348804456      -34.5109412840      -41.9265580170  TIP3      3865            0.0000000000
     33847      4057  TIP3      H2            -13.6707721246      -33.5677814666      -40.7679868381  TIP3      3865            0.0000000000
     33848      4058  TIP3      OH2            -9.3245365309      -33.6635782476      -38.8955089414  TIP3      3866            0.0000000000
     33849      4058  TIP3      H1             -8.9697800814      -34.2200498885      -38.1790807928  TIP3      3866            0.0000000000
     33850      4058  TIP3      H2             -9.1949377588      -32.7910183229      -38.4537525750  TIP3      3866            0.0000000000
     33851      4059  TIP3      OH2            -7.3710424983      -18.3241734185      -40.4532417557  TIP3      3867            0.0000000000
     33852      4059  TIP3      H1             -6.4094053902      -18.3120548327      -40.6245675124  TIP3      3867            0.0000000000
     33853      4059  TIP3      H2             -7.5404382542      -19.0324237382      -41.1252215117  TIP3      3867            0.0000000000
     33854      4060  TIP3      OH2            -0.6005780133      -19.0704443567      -37.7648480897  TIP3      3868            0.0000000000
     33855      4060  TIP3      H1             -0.8216997001      -19.8511813824      -38.3355775551  TIP3      3868            0.0000000000
     33856      4060  TIP3      H2             -0.7151186515      -18.3466814193      -38.4111278947  TIP3      3868            0.0000000000
     33857      4061  TIP3      OH2           -15.1216443200      -35.0700710787      -26.2069231722  TIP3      3869            0.0000000000
     33858      4061  TIP3      H1            -15.4051936696      -35.8243393699      -25.6863794962  TIP3      3869            0.0000000000
     33859      4061  TIP3      H2            -14.1981650685      -35.0656960534      -25.8408289177  TIP3      3869            0.0000000000
     33860      4062  TIP3      OH2           -13.2843812567      -35.4952387737      -24.6058338377  TIP3      3870            0.0000000000
     33861      4062  TIP3      H1            -12.3314800787      -35.6947261350      -24.7342961971  TIP3      3870            0.0000000000
     33862      4062  TIP3      H2            -13.4131497892      -36.3415227072      -24.1335732064  TIP3      3870            0.0000000000
     33863      4063  TIP3      OH2           -14.3708158074      -18.9134610707      -41.8744924542  TIP3      3871            0.0000000000
     33864      4063  TIP3      H1            -14.6700033872      -18.6458346604      -40.9969790526  TIP3      3871            0.0000000000
     33865      4063  TIP3      H2            -13.6131536986      -19.4724853995      -41.7073795690  TIP3      3871            0.0000000000
     33866      4064  TIP3      OH2            -4.6880418659       37.0309003889      -24.4003081272  TIP3      3872            0.0000000000
     33867      4064  TIP3      H1             -4.6726202449       36.4576809814      -23.6079198028  TIP3      3872            0.0000000000
     33868      4064  TIP3      H2             -3.8085687890       36.7911100978      -24.7224594686  TIP3      3872            0.0000000000
     33869      4065  TIP3      OH2            -1.3382928958      -20.3122934577      -25.7210631533  TIP3      3873            0.0000000000
     33870      4065  TIP3      H1             -2.1629504710      -20.5047205378      -26.2082194716  TIP3      3873            0.0000000000
     33871      4065  TIP3      H2             -1.5243285311      -19.3958989799      -25.4671592591  TIP3      3873            0.0000000000
     33872      4066  TIP3      OH2            13.0520592499      -26.4613802660      -35.7058047516  TIP3      3874            0.0000000000
     33873      4066  TIP3      H1             13.0540347269      -25.4813017773      -35.7565289824  TIP3      3874            0.0000000000
     33874      4066  TIP3      H2             12.3305305693      -26.6960250519      -36.3126456478  TIP3      3874            0.0000000000
     33875      4067  TIP3      OH2            11.9093033060      -27.2022925843      -32.2079338451  TIP3      3875            0.0000000000
     33876      4067  TIP3      H1             11.8976444139      -27.8560283301      -31.4950803634  TIP3      3875            0.0000000000
     33877      4067  TIP3      H2             11.5745056879      -27.7052083730      -32.9657580497  TIP3      3875            0.0000000000
     33878      4068  TIP3      OH2             4.2670747950      -27.5318892028      -30.6538026815  TIP3      3876            0.0000000000
     33879      4068  TIP3      H1              4.3512374960      -28.2160956045      -29.9563433222  TIP3      3876            0.0000000000
     33880      4068  TIP3      H2              5.0158769951      -26.9588037201      -30.4373392856  TIP3      3876            0.0000000000
     33881      4069  TIP3      OH2            15.5890650209      -24.2720977539      -33.9195430027  TIP3      3877            0.0000000000
     33882      4069  TIP3      H1             15.1787239511      -24.9812413876      -33.4201123993  TIP3      3877            0.0000000000
     33883      4069  TIP3      H2             15.6305864675      -23.5436406991      -33.2700029365  TIP3      3877            0.0000000000
     33884      4070  TIP3      OH2             5.1948530594      -23.0859376359      -32.1480121953  TIP3      3878            0.0000000000
     33885      4070  TIP3      H1              4.8795970462      -23.9501204197      -32.4748117793  TIP3      3878            0.0000000000
     33886      4070  TIP3      H2              6.1501152257      -23.2707261213      -32.1025816379  TIP3      3878            0.0000000000
     33887      4071  TIP3      OH2             1.8564215640      -29.5178289694      -36.7107499614  TIP3      3879            0.0000000000
     33888      4071  TIP3      H1              1.4032015934      -28.6518053105      -36.7049581093  TIP3      3879            0.0000000000
     33889      4071  TIP3      H2              1.2440807783      -30.0553898899      -37.2176927019  TIP3      3879            0.0000000000
     33890      4072  TIP3      OH2             2.5561152105      -27.2793871113      -34.5278062092  TIP3      3880            0.0000000000
     33891      4072  TIP3      H1              2.7994509125      -28.1087072617      -34.0688635067  TIP3      3880            0.0000000000
     33892      4072  TIP3      H2              3.2538964533      -27.1974766273      -35.1918423046  TIP3      3880            0.0000000000
     33893      4073  TIP3      OH2            12.7232783450      -19.0989284596      -33.6875043720  TIP3      3881            0.0000000000
     33894      4073  TIP3      H1             13.3655015735      -19.7943076815      -33.9759906461  TIP3      3881            0.0000000000
     33895      4073  TIP3      H2             12.5093988416      -19.4274154425      -32.8153126939  TIP3      3881            0.0000000000
     33896      4074  TIP3      OH2            10.2896634392      -24.8018206137      -31.7477196591  TIP3      3882            0.0000000000
     33897      4074  TIP3      H1             10.6289686313      -25.4342959833      -32.3995719281  TIP3      3882            0.0000000000
     33898      4074  TIP3      H2             11.0936846310      -24.6477792111      -31.2222260669  TIP3      3882            0.0000000000
     33899      4075  TIP3      OH2            18.8875386682      -33.1571592965      -31.0080072644  TIP3      3883            0.0000000000
     33900      4075  TIP3      H1             19.0650260686      -32.5744756503      -30.2346557965  TIP3      3883            0.0000000000
     33901      4075  TIP3      H2             19.4372406571      -32.7226842114      -31.6753777655  TIP3      3883            0.0000000000
     33902      4076  TIP3      OH2            13.4576078548      -30.3382944317      -31.4227156342  TIP3      3884            0.0000000000
     33903      4076  TIP3      H1             13.6104464869      -31.3051395176      -31.4248076305  TIP3      3884            0.0000000000
     33904      4076  TIP3      H2             13.3522556310      -30.1896626979      -32.3836766430  TIP3      3884            0.0000000000
     33905      4077  TIP3      OH2             6.5801714876      -32.2362071148      -34.2112106491  TIP3      3885            0.0000000000
     33906      4077  TIP3      H1              6.6767631516      -31.4001231815      -34.7037572506  TIP3      3885            0.0000000000
     33907      4077  TIP3      H2              6.1590626142      -32.8028309100      -34.8910944592  TIP3      3885            0.0000000000
     33908      4078  TIP3      OH2            14.3150333565      -32.1907455025      -35.8437006846  TIP3      3886            0.0000000000
     33909      4078  TIP3      H1             14.9710708992      -32.4638065376      -35.1629823244  TIP3      3886            0.0000000000
     33910      4078  TIP3      H2             14.8638775399      -31.6091108629      -36.3937591832  TIP3      3886            0.0000000000
     33911      4079  TIP3      OH2             3.1938797467      -29.8334170852      -33.4713853428  TIP3      3887            0.0000000000
     33912      4079  TIP3      H1              3.8660614493      -30.3851528936      -33.0210092415  TIP3      3887            0.0000000000
     33913      4079  TIP3      H2              3.2961680866      -30.1509246983      -34.3802686757  TIP3      3887            0.0000000000
     33914      4080  TIP3      OH2             8.3561673700      -28.2822683867      -34.1656349151  TIP3      3888            0.0000000000
     33915      4080  TIP3      H1              9.0216934249      -28.8626398435      -33.7586302251  TIP3      3888            0.0000000000
     33916      4080  TIP3      H2              7.8341185847      -28.9417592288      -34.6633891933  TIP3      3888            0.0000000000
     33917      4081  TIP3      OH2            19.3407166876      -31.7328845736      -28.7305823736  TIP3      3889            0.0000000000
     33918      4081  TIP3      H1             18.6975461734      -30.9967045825      -28.8356704855  TIP3      3889            0.0000000000
     33919      4081  TIP3      H2             19.3692881618      -31.8390388121      -27.7653303113  TIP3      3889            0.0000000000
     33920      4082  TIP3      OH2             5.4867144735      -33.3007421314      -30.1782409376  TIP3      3890            0.0000000000
     33921      4082  TIP3      H1              5.1668042518      -32.7666355684      -30.9328252559  TIP3      3890            0.0000000000
     33922      4082  TIP3      H2              4.7799753516      -33.1200743703      -29.5078476548  TIP3      3890            0.0000000000
     33923      4083  TIP3      OH2            12.7607625224      -23.8710120667      -36.6179766995  TIP3      3891            0.0000000000
     33924      4083  TIP3      H1             12.5061288834      -24.1399156786      -37.5125728348  TIP3      3891            0.0000000000
     33925      4083  TIP3      H2             12.4632726880      -22.9352810098      -36.5761639023  TIP3      3891            0.0000000000
     33926      4084  TIP3      OH2             7.9934141029      -25.7045674806      -29.9230545331  TIP3      3892            0.0000000000
     33927      4084  TIP3      H1              7.2842859078      -25.0605911426      -29.7148405462  TIP3      3892            0.0000000000
     33928      4084  TIP3      H2              8.7005473482      -25.1070491791      -30.2136567864  TIP3      3892            0.0000000000
     33929      4085  TIP3      OH2            16.1269815585      -32.8389236313      -33.8564097838  TIP3      3893            0.0000000000
     33930      4085  TIP3      H1             15.8792086116      -33.5847969529      -33.2986603857  TIP3      3893            0.0000000000
     33931      4085  TIP3      H2             16.7828998269      -32.3875051683      -33.2983480726  TIP3      3893            0.0000000000
     33932      4086  TIP3      OH2             5.0309363865      -31.4468176568      -32.1610033749  TIP3      3894            0.0000000000
     33933      4086  TIP3      H1              5.6830067027      -30.8010195266      -31.8159953039  TIP3      3894            0.0000000000
     33934      4086  TIP3      H2              5.5539077281      -31.8981653824      -32.8704369938  TIP3      3894            0.0000000000
     33935      4087  TIP3      OH2             6.4380204130      -23.7011599402      -29.1077116702  TIP3      3895            0.0000000000
     33936      4087  TIP3      H1              6.3847679555      -22.7889689874      -29.4494567491  TIP3      3895            0.0000000000
     33937      4087  TIP3      H2              5.5568329659      -23.7920454755      -28.6745563788  TIP3      3895            0.0000000000
     33938      4088  TIP3      OH2             2.5053316611      -24.0821744167      -38.3173130899  TIP3      3896            0.0000000000
     33939      4088  TIP3      H1              2.2914143025      -23.7533188940      -39.2125543633  TIP3      3896            0.0000000000
     33940      4088  TIP3      H2              2.5818245994      -23.2504775218      -37.8067654702  TIP3      3896            0.0000000000
     33941      4089  TIP3      OH2            16.1340213982      -22.4188484262      -31.5625290608  TIP3      3897            0.0000000000
     33942      4089  TIP3      H1             15.1657390126      -22.3105688070      -31.4385573777  TIP3      3897            0.0000000000
     33943      4089  TIP3      H2             16.4072232754      -21.5059717178      -31.7756528010  TIP3      3897            0.0000000000
     33944      4090  TIP3      OH2            16.4807186706      -34.1427540645      -30.1152511824  TIP3      3898            0.0000000000
     33945      4090  TIP3      H1             15.7345976014      -33.5427846211      -30.2549294892  TIP3      3898            0.0000000000
     33946      4090  TIP3      H2             17.1690389937      -33.7311371059      -30.6757368692  TIP3      3898            0.0000000000
     33947      4091  TIP3      OH2             9.4031006070      -36.0084111035      -32.8585412954  TIP3      3899            0.0000000000
     33948      4091  TIP3      H1              9.3707233281      -36.9687417104      -32.7162249386  TIP3      3899            0.0000000000
     33949      4091  TIP3      H2              8.6030162578      -35.7383013640      -32.3805654093  TIP3      3899            0.0000000000
     33950      4092  TIP3      OH2            14.3794901514      -20.6337712717      -34.9702115864  TIP3      3900            0.0000000000
     33951      4092  TIP3      H1             14.8300163211      -21.3507660499      -35.4732668207  TIP3      3900            0.0000000000
     33952      4092  TIP3      H2             14.8265396993      -19.8528933519      -35.3609170834  TIP3      3900            0.0000000000
     33953      4093  TIP3      OH2            15.5173366150      -22.6975402438      -36.4600086881  TIP3      3901            0.0000000000
     33954      4093  TIP3      H1             15.3372720697      -23.4024948182      -37.0961153922  TIP3      3901            0.0000000000
     33955      4093  TIP3      H2             15.6596858245      -23.1951226426      -35.6353097528  TIP3      3901            0.0000000000
     33956      4094  TIP3      OH2            17.2298802706      -24.1215932527      -27.9530636032  TIP3      3902            0.0000000000
     33957      4094  TIP3      H1             17.3642968212      -24.7633771985      -28.6854828521  TIP3      3902            0.0000000000
     33958      4094  TIP3      H2             17.4175457726      -23.2714172449      -28.3888779701  TIP3      3902            0.0000000000
     33959      4095  TIP3      OH2            11.7069659815      -27.2215269793      -38.2063043233  TIP3      3903            0.0000000000
     33960      4095  TIP3      H1             11.0155803309      -26.6433791551      -38.5905351661  TIP3      3903            0.0000000000
     33961      4095  TIP3      H2             12.4181118377      -27.1278957136      -38.8673786336  TIP3      3903            0.0000000000
     33962      4096  TIP3      OH2            11.7524870154      -28.6936752153      -41.1159038484  TIP3      3904            0.0000000000
     33963      4096  TIP3      H1             12.4902037401      -28.6895280578      -40.4852308258  TIP3      3904            0.0000000000
     33964      4096  TIP3      H2             12.0812379081      -29.3284070400      -41.7585828396  TIP3      3904            0.0000000000
     33965      4097  TIP3      OH2            19.1021273691      -27.8065745453      -29.9227280062  TIP3      3905            0.0000000000
     33966      4097  TIP3      H1             18.4426559354      -27.0846748935      -29.8676119470  TIP3      3905            0.0000000000
     33967      4097  TIP3      H2             19.5948963098      -27.5682583031      -30.7301535548  TIP3      3905            0.0000000000
     33968      4098  TIP3      OH2            15.1486403475      -27.0113349541      -37.2547227372  TIP3      3906            0.0000000000
     33969      4098  TIP3      H1             14.4064241690      -26.7686129305      -36.6520579769  TIP3      3906            0.0000000000
     33970      4098  TIP3      H2             15.6296174163      -27.6870269370      -36.7458254564  TIP3      3906            0.0000000000
     33971      4099  TIP3      OH2            15.0834249342      -28.8503172203      -28.1682550989  TIP3      3907            0.0000000000
     33972      4099  TIP3      H1             15.0936057631      -28.0436732003      -27.6198895716  TIP3      3907            0.0000000000
     33973      4099  TIP3      H2             14.4508629149      -28.5494142095      -28.8494643059  TIP3      3907            0.0000000000
     33974      4100  TIP3      OH2             6.7719884929      -26.3505397672      -35.3584566932  TIP3      3908            0.0000000000
     33975      4100  TIP3      H1              6.4513810623      -26.7444371157      -36.2041722749  TIP3      3908            0.0000000000
     33976      4100  TIP3      H2              7.3856225044      -27.0446436358      -35.0217961828  TIP3      3908            0.0000000000
     33977      4101  TIP3      OH2             8.0970587625      -22.9660030290      -32.6766276646  TIP3      3909            0.0000000000
     33978      4101  TIP3      H1              8.0839668425      -23.4985218048      -33.4798797570  TIP3      3909            0.0000000000
     33979      4101  TIP3      H2              8.8769078329      -23.3251394936      -32.2153221199  TIP3      3909            0.0000000000
     33980      4102  TIP3      OH2             7.1058846424      -27.6060506786      -31.6978996817  TIP3      3910            0.0000000000
     33981      4102  TIP3      H1              7.6599211526      -27.5017942965      -32.4962682898  TIP3      3910            0.0000000000
     33982      4102  TIP3      H2              7.4898206541      -26.9408920435      -31.0849005774  TIP3      3910            0.0000000000
     33983      4103  TIP3      OH2            13.5132079499      -22.0372713504      -30.9914200800  TIP3      3911            0.0000000000
     33984      4103  TIP3      H1             13.2264159322      -21.4033532505      -30.3301123912  TIP3      3911            0.0000000000
     33985      4103  TIP3      H2             13.2597359867      -22.8924323036      -30.5678620951  TIP3      3911            0.0000000000
     33986      4104  TIP3      OH2             8.0357037080      -23.1796627081      -26.9677904489  TIP3      3912            0.0000000000
     33987      4104  TIP3      H1              7.6572277240      -22.4011205965      -26.5137628065  TIP3      3912            0.0000000000
     33988      4104  TIP3      H2              7.3888749061      -23.3694331529      -27.6917373999  TIP3      3912            0.0000000000
     33989      4105  TIP3      OH2            14.0363691197      -27.8374469043      -39.5945331842  TIP3      3913            0.0000000000
     33990      4105  TIP3      H1             14.5835387722      -27.6344752818      -38.7971939745  TIP3      3913            0.0000000000
     33991      4105  TIP3      H2             14.4437119836      -27.2946135700      -40.2982451910  TIP3      3913            0.0000000000
     33992      4106  TIP3      OH2             4.9808742431      -27.0102259888      -27.7921579819  TIP3      3914            0.0000000000
     33993      4106  TIP3      H1              5.0156163237      -26.3243534223      -27.1036970180  TIP3      3914            0.0000000000
     33994      4106  TIP3      H2              4.0585944324      -26.9183581143      -28.0800086978  TIP3      3914            0.0000000000
     33995      4107  TIP3      OH2            11.7389679997      -21.0971208017      -36.1214640760  TIP3      3915            0.0000000000
     33996      4107  TIP3      H1             12.1859491213      -20.7806196486      -35.3289106812  TIP3      3915            0.0000000000
     33997      4107  TIP3      H2             11.1904601960      -20.3463075281      -36.3797580252  TIP3      3915            0.0000000000
     33998      4108  TIP3      OH2             6.2757918515      -21.1638651556      -26.2463233566  TIP3      3916            0.0000000000
     33999      4108  TIP3      H1              6.2556404786      -21.2493086850      -27.2165844747  TIP3      3916            0.0000000000
     34000      4108  TIP3      H2              5.3491091383      -21.2477561971      -26.0147968912  TIP3      3916            0.0000000000
     34001      4109  TIP3      OH2            17.7447285968      -35.9141001349      -39.8860266527  TIP3      3917            0.0000000000
     34002      4109  TIP3      H1             16.8472124415      -35.8959071486      -39.4926615030  TIP3      3917            0.0000000000
     34003      4109  TIP3      H2             17.9497600560      -35.0388437727      -40.2114445722  TIP3      3917            0.0000000000
     34004      4110  TIP3      OH2             5.7444372457      -27.3167544126      -37.7426540593  TIP3      3918            0.0000000000
     34005      4110  TIP3      H1              5.4643894423      -26.5426075562      -38.2678481033  TIP3      3918            0.0000000000
     34006      4110  TIP3      H2              5.0912604566      -27.9852255461      -37.9705329512  TIP3      3918            0.0000000000
     34007      4111  TIP3      OH2            18.8817569261      -21.7531619150      -41.4007282811  TIP3      3919            0.0000000000
     34008      4111  TIP3      H1             18.9761890490      -20.8038099961      -41.1992468091  TIP3      3919            0.0000000000
     34009      4111  TIP3      H2             19.8129352156      -22.0268895080      -41.3917172188  TIP3      3919            0.0000000000
     34010      4112  TIP3      OH2             1.8644357444      -24.9036514326      -28.8869063200  TIP3      3920            0.0000000000
     34011      4112  TIP3      H1              1.3807308732      -24.9890175277      -29.7263854326  TIP3      3920            0.0000000000
     34012      4112  TIP3      H2              1.9001426143      -25.8458847655      -28.6332986774  TIP3      3920            0.0000000000
     34013      4113  TIP3      OH2             1.5940079652      -22.1400437250      -32.0793231728  TIP3      3921            0.0000000000
     34014      4113  TIP3      H1              2.5465600717      -22.3172090586      -32.0743273944  TIP3      3921            0.0000000000
     34015      4113  TIP3      H2              1.5115268526      -21.3603877984      -31.5222906355  TIP3      3921            0.0000000000
     34016      4114  TIP3      OH2            19.8089592908      -21.4565041918      -26.3948934953  TIP3      3922            0.0000000000
     34017      4114  TIP3      H1             19.7196302969      -22.4221514054      -26.4024697960  TIP3      3922            0.0000000000
     34018      4114  TIP3      H2             18.9455867155      -21.2176676083      -25.9721982263  TIP3      3922            0.0000000000
     34019      4115  TIP3      OH2            10.7871628516      -21.9239962703      -27.5190516500  TIP3      3923            0.0000000000
     34020      4115  TIP3      H1             10.8481725285      -21.0863284395      -27.0018209207  TIP3      3923            0.0000000000
     34021      4115  TIP3      H2              9.9158209142      -22.2793667155      -27.2630986835  TIP3      3923            0.0000000000
     34022      4116  TIP3      OH2            11.2179200881      -18.1801033660      -37.7216234315  TIP3      3924            0.0000000000
     34023      4116  TIP3      H1             11.1437016567      -18.2442707301      -38.6895393621  TIP3      3924            0.0000000000
     34024      4116  TIP3      H2             11.2533521118      -17.2183988709      -37.5636484997  TIP3      3924            0.0000000000
     34025      4117  TIP3      OH2             4.8368640345      -19.2670865421      -35.8795456040  TIP3      3925            0.0000000000
     34026      4117  TIP3      H1              5.0270062155      -19.7405779966      -35.0403010309  TIP3      3925            0.0000000000
     34027      4117  TIP3      H2              4.0320308558      -19.7365752519      -36.1628263579  TIP3      3925            0.0000000000
     34028      4118  TIP3      OH2            14.2577231937      -18.9784224396      -40.7510113125  TIP3      3926            0.0000000000
     34029      4118  TIP3      H1             14.7265673330      -19.7338779593      -41.1711380202  TIP3      3926            0.0000000000
     34030      4118  TIP3      H2             14.3465622139      -19.2314363085      -39.8114564928  TIP3      3926            0.0000000000
     34031      4119  TIP3      OH2            13.9613144026      -19.0176388778      -37.9552222442  TIP3      3927            0.0000000000
     34032      4119  TIP3      H1             13.0059653775      -18.9725682754      -37.7694180048  TIP3      3927            0.0000000000
     34033      4119  TIP3      H2             14.2404614163      -19.7685967156      -37.4025011040  TIP3      3927            0.0000000000
     34034      4120  TIP3      OH2            16.9572705656      -29.9990536827      -25.9013035577  TIP3      3928            0.0000000000
     34035      4120  TIP3      H1             16.4972276634      -29.5473348681      -26.6275218863  TIP3      3928            0.0000000000
     34036      4120  TIP3      H2             16.9940740261      -30.9223142828      -26.2059119418  TIP3      3928            0.0000000000
     34037      4121  TIP3      OH2             4.0971850574      -23.5472080844      -27.8712636838  TIP3      3929            0.0000000000
     34038      4121  TIP3      H1              4.3329425945      -23.9815778898      -27.0248711166  TIP3      3929            0.0000000000
     34039      4121  TIP3      H2              3.2551635702      -23.9903966977      -28.1261646725  TIP3      3929            0.0000000000
     34040      4122  TIP3      OH2             6.7749008321      -35.1487118033      -31.9200411392  TIP3      3930            0.0000000000
     34041      4122  TIP3      H1              5.8836664474      -35.2106167433      -32.3182840842  TIP3      3930            0.0000000000
     34042      4122  TIP3      H2              6.6691135298      -34.2901506383      -31.4804353995  TIP3      3930            0.0000000000
     34043      4123  TIP3      OH2            11.4186114217      -35.4303251864      -28.5458663654  TIP3      3931            0.0000000000
     34044      4123  TIP3      H1             11.8373989340      -35.8318439250      -27.7851321290  TIP3      3931            0.0000000000
     34045      4123  TIP3      H2             10.4656362016      -35.5312168364      -28.3801263517  TIP3      3931            0.0000000000
     34046      4124  TIP3      OH2            14.7047912972      -31.6552495112      -27.7100481298  TIP3      3932            0.0000000000
     34047      4124  TIP3      H1             14.1579816679      -31.7932687862      -26.8987770193  TIP3      3932            0.0000000000
     34048      4124  TIP3      H2             14.5743544100      -30.7106399704      -27.9137819562  TIP3      3932            0.0000000000
     34049      4125  TIP3      OH2            15.5593459504      -26.7451674199      -41.7850001556  TIP3      3933            0.0000000000
     34050      4125  TIP3      H1             15.5681034468      -26.9289780456      -42.7404684614  TIP3      3933            0.0000000000
     34051      4125  TIP3      H2             16.4209633736      -26.3068188734      -41.6730183668  TIP3      3933            0.0000000000
     34052      4126  TIP3      OH2            11.0895426836      -32.8875144662      -41.2447267306  TIP3      3934            0.0000000000
     34053      4126  TIP3      H1             10.7842721385      -32.9257491726      -40.3218404298  TIP3      3934            0.0000000000
     34054      4126  TIP3      H2             10.8265994917      -33.7632178920      -41.5421276252  TIP3      3934            0.0000000000
     34055      4127  TIP3      OH2             6.8998904118      -30.1415718696      -30.7066240334  TIP3      3935            0.0000000000
     34056      4127  TIP3      H1              6.1631216942      -30.1565318296      -30.0671359577  TIP3      3935            0.0000000000
     34057      4127  TIP3      H2              6.8529292872      -29.2308221952      -31.0723115532  TIP3      3935            0.0000000000
     34058      4128  TIP3      OH2             6.8525500592      -30.0131689548      -35.8470395367  TIP3      3936            0.0000000000
     34059      4128  TIP3      H1              5.9175039067      -30.2675197829      -35.9733843579  TIP3      3936            0.0000000000
     34060      4128  TIP3      H2              7.2355498263      -30.3167799240      -36.6928360017  TIP3      3936            0.0000000000
     34061      4129  TIP3      OH2            12.3876078985      -29.5262479422      -37.0960703679  TIP3      3937            0.0000000000
     34062      4129  TIP3      H1             11.9785608726      -28.6900802876      -37.4125885877  TIP3      3937            0.0000000000
     34063      4129  TIP3      H2             13.0816002205      -29.6820473065      -37.7638752240  TIP3      3937            0.0000000000
     34064      4130  TIP3      OH2            11.4447476589      -29.3202075442      -25.6190383955  TIP3      3938            0.0000000000
     34065      4130  TIP3      H1             10.9042670488      -30.0797773931      -25.2889630517  TIP3      3938            0.0000000000
     34066      4130  TIP3      H2             12.2707135181      -29.4425007966      -25.1124752483  TIP3      3938            0.0000000000
     34067      4131  TIP3      OH2            13.4144053760      -30.0335541940      -34.2221505490  TIP3      3939            0.0000000000
     34068      4131  TIP3      H1             13.1358322205      -29.4725830427      -34.9651384095  TIP3      3939            0.0000000000
     34069      4131  TIP3      H2             13.5101175430      -30.8809231050      -34.6932069776  TIP3      3939            0.0000000000
     34070      4132  TIP3      OH2             4.5256965879      -29.8789599931      -29.0141724081  TIP3      3940            0.0000000000
     34071      4132  TIP3      H1              4.5931079423      -29.4760822668      -28.1311953926  TIP3      3940            0.0000000000
     34072      4132  TIP3      H2              4.0733456654      -30.7121382452      -28.8130024310  TIP3      3940            0.0000000000
     34073      4133  TIP3      OH2             8.0540205515      -32.2819483501      -41.8512274723  TIP3      3941            0.0000000000
     34074      4133  TIP3      H1              7.5104811808      -32.8948205705      -41.3265071208  TIP3      3941            0.0000000000
     34075      4133  TIP3      H2              7.4572901995      -31.9185405468      -42.5033920869  TIP3      3941            0.0000000000
     34076      4134  TIP3      OH2             1.1811651734      -32.7453317622      -35.0737902085  TIP3      3942            0.0000000000
     34077      4134  TIP3      H1              1.8449527785      -32.7784842916      -34.3483827564  TIP3      3942            0.0000000000
     34078      4134  TIP3      H2              1.6441218525      -33.1592431540      -35.8106809575  TIP3      3942            0.0000000000
     34079      4135  TIP3      OH2             2.5282682613      -32.0306980227      -39.4834467128  TIP3      3943            0.0000000000
     34080      4135  TIP3      H1              3.0847219028      -31.3996289538      -39.9944842845  TIP3      3943            0.0000000000
     34081      4135  TIP3      H2              1.7884067239      -31.4314502153      -39.2012268966  TIP3      3943            0.0000000000
     34082      4136  TIP3      OH2            12.6112149140      -28.4408487430      -29.6604845365  TIP3      3944            0.0000000000
     34083      4136  TIP3      H1             12.9878413257      -29.1261115859      -30.2507937032  TIP3      3944            0.0000000000
     34084      4136  TIP3      H2             12.1502457067      -28.9746864829      -28.9881216247  TIP3      3944            0.0000000000
     34085      4137  TIP3      OH2             9.4168506190      -32.4826787678      -34.8503617754  TIP3      3945            0.0000000000
     34086      4137  TIP3      H1              8.4880570458      -32.4735005535      -34.5384262751  TIP3      3945            0.0000000000
     34087      4137  TIP3      H2              9.9079436248      -32.6203743360      -34.0237305425  TIP3      3945            0.0000000000
     34088      4138  TIP3      OH2             4.2319183438      -30.9083301348      -35.9680202551  TIP3      3946            0.0000000000
     34089      4138  TIP3      H1              3.3367072724      -30.7678343676      -36.3375649792  TIP3      3946            0.0000000000
     34090      4138  TIP3      H2              4.5252133540      -31.7471987863      -36.3631535812  TIP3      3946            0.0000000000
     34091      4139  TIP3      OH2             7.8643996763      -30.8595097722      -38.3334018451  TIP3      3947            0.0000000000
     34092      4139  TIP3      H1              8.8226713230      -30.7619142904      -38.1641444582  TIP3      3947            0.0000000000
     34093      4139  TIP3      H2              7.6358333415      -30.1977066438      -39.0104684631  TIP3      3947            0.0000000000
     34094      4140  TIP3      OH2            13.8228986157      -33.2592134395      -31.5928426749  TIP3      3948            0.0000000000
     34095      4140  TIP3      H1             13.1321220275      -33.1734795405      -30.8998582242  TIP3      3948            0.0000000000
     34096      4140  TIP3      H2             13.3171858867      -33.5094283259      -32.3777159787  TIP3      3948            0.0000000000
     34097      4141  TIP3      OH2             6.5515266063      -29.7063213150      -40.7425337252  TIP3      3949            0.0000000000
     34098      4141  TIP3      H1              6.0277181400      -30.0436030435      -41.4813473081  TIP3      3949            0.0000000000
     34099      4141  TIP3      H2              7.3917534681      -29.4807189154      -41.1830225515  TIP3      3949            0.0000000000
     34100      4142  TIP3      OH2            17.0378522445      -17.5818783688      -25.2554524669  TIP3      3950            0.0000000000
     34101      4142  TIP3      H1             17.2976961486      -17.2114399344      -26.1045540342  TIP3      3950            0.0000000000
     34102      4142  TIP3      H2             17.7447704550      -17.3084288419      -24.6498484130  TIP3      3950            0.0000000000
     34103      4143  TIP3      OH2             4.7128086781      -25.1000461092      -25.6909585843  TIP3      3951            0.0000000000
     34104      4143  TIP3      H1              5.4129560814      -24.8754812813      -25.0549837885  TIP3      3951            0.0000000000
     34105      4143  TIP3      H2              3.9132393945      -25.0404407855      -25.1120649813  TIP3      3951            0.0000000000
     34106      4144  TIP3      OH2            10.7048861357      -29.7177832663      -32.9402181873  TIP3      3952            0.0000000000
     34107      4144  TIP3      H1             11.2962161258      -30.2652394864      -33.4707595632  TIP3      3952            0.0000000000
     34108      4144  TIP3      H2             10.5515586109      -30.2597847008      -32.1541444192  TIP3      3952            0.0000000000
     34109      4145  TIP3      OH2             5.6936755714      -33.5445429287      -36.4838433709  TIP3      3953            0.0000000000
     34110      4145  TIP3      H1              5.3813506065      -34.4645675942      -36.4880806477  TIP3      3953            0.0000000000
     34111      4145  TIP3      H2              6.4737281842      -33.6146705580      -37.0491120467  TIP3      3953            0.0000000000
     34112      4146  TIP3      OH2             9.3460665151      -31.3381619078      -30.5376633317  TIP3      3954            0.0000000000
     34113      4146  TIP3      H1              8.5022170686      -30.8556543319      -30.4246558265  TIP3      3954            0.0000000000
     34114      4146  TIP3      H2              9.8896253299      -31.0289972110      -29.7875851556  TIP3      3954            0.0000000000
     34115      4147  TIP3      OH2             9.9285736280      -25.1771183813      -38.8037703480  TIP3      3955            0.0000000000
     34116      4147  TIP3      H1              9.1281245101      -25.6330888322      -39.1444809603  TIP3      3955            0.0000000000
     34117      4147  TIP3      H2              9.7075528240      -25.0537983921      -37.8610351374  TIP3      3955            0.0000000000
     34118      4148  TIP3      OH2            17.1022671025      -25.9652196695      -30.0326510800  TIP3      3956            0.0000000000
     34119      4148  TIP3      H1             17.6736476941      -25.4820578431      -30.6548961767  TIP3      3956            0.0000000000
     34120      4148  TIP3      H2             16.2433896621      -25.9084045672      -30.4977742291  TIP3      3956            0.0000000000
     34121      4149  TIP3      OH2            13.7986891237      -32.3676974654      -40.6473839484  TIP3      3957            0.0000000000
     34122      4149  TIP3      H1             12.8515406241      -32.2193433256      -40.8166606965  TIP3      3957            0.0000000000
     34123      4149  TIP3      H2             14.0908496741      -31.4940753158      -40.3276524953  TIP3      3957            0.0000000000
     34124      4150  TIP3      OH2            11.4141230814      -24.9045990673      -27.5950673426  TIP3      3958            0.0000000000
     34125      4150  TIP3      H1             11.0658659616      -25.3166721344      -26.7970842304  TIP3      3958            0.0000000000
     34126      4150  TIP3      H2             11.1701699793      -23.9786062784      -27.4856595983  TIP3      3958            0.0000000000
     34127      4151  TIP3      OH2            14.5030709737      -30.4413172653      -38.9796395642  TIP3      3959            0.0000000000
     34128      4151  TIP3      H1             15.4013152809      -30.5825198544      -38.6215823663  TIP3      3959            0.0000000000
     34129      4151  TIP3      H2             14.5854607501      -29.6259967642      -39.5014131077  TIP3      3959            0.0000000000
     34130      4152  TIP3      OH2             5.0339925474      -25.7714535335      -33.0261324169  TIP3      3960            0.0000000000
     34131      4152  TIP3      H1              5.7247005070      -25.8492235859      -33.7121938774  TIP3      3960            0.0000000000
     34132      4152  TIP3      H2              5.0944985294      -26.6305076318      -32.5726949670  TIP3      3960            0.0000000000
     34133      4153  TIP3      OH2            12.0081496662      -23.7006309148      -39.7782063121  TIP3      3961            0.0000000000
     34134      4153  TIP3      H1             11.6732301163      -22.8505165907      -39.4268684163  TIP3      3961            0.0000000000
     34135      4153  TIP3      H2             11.2738449101      -24.3201469749      -39.5800492193  TIP3      3961            0.0000000000
     34136      4154  TIP3      OH2             2.0296801315      -27.3752793771      -27.7673144574  TIP3      3962            0.0000000000
     34137      4154  TIP3      H1              2.1827585503      -27.8006091597      -26.9031506027  TIP3      3962            0.0000000000
     34138      4154  TIP3      H2              1.3959363601      -27.9733965675      -28.1968406413  TIP3      3962            0.0000000000
     34139      4155  TIP3      OH2             9.0422453782      -27.7891395796      -25.6178563849  TIP3      3963            0.0000000000
     34140      4155  TIP3      H1              8.7318864580      -28.1100917463      -26.4776974327  TIP3      3963            0.0000000000
     34141      4155  TIP3      H2              9.9640823205      -28.1214998300      -25.5882010686  TIP3      3963            0.0000000000
     34142      4156  TIP3      OH2            13.7181710967      -22.4720653823      -27.6206475999  TIP3      3964            0.0000000000
     34143      4156  TIP3      H1             12.7955729329      -22.2899744478      -27.8646746775  TIP3      3964            0.0000000000
     34144      4156  TIP3      H2             13.6839154131      -22.1771731891      -26.6918071399  TIP3      3964            0.0000000000
     34145      4157  TIP3      OH2            19.3968935689      -30.2812299396      -39.2300534467  TIP3      3965            0.0000000000
     34146      4157  TIP3      H1             18.8319041686      -30.6003737719      -39.9571843766  TIP3      3965            0.0000000000
     34147      4157  TIP3      H2             19.4678603077      -29.3428397863      -39.5118094778  TIP3      3965            0.0000000000
     34148      4158  TIP3      OH2            19.3755841860      -24.4463328927      -26.4306211700  TIP3      3966            0.0000000000
     34149      4158  TIP3      H1             18.4965015763      -24.2149803637      -26.8220400904  TIP3      3966            0.0000000000
     34150      4158  TIP3      H2             19.9333557762      -24.4857779541      -27.2331078614  TIP3      3966            0.0000000000
     34151      4159  TIP3      OH2            17.1463607025      -21.6256919602      -39.3501881349  TIP3      3967            0.0000000000
     34152      4159  TIP3      H1             17.3378794256      -22.1427559791      -38.5389080300  TIP3      3967            0.0000000000
     34153      4159  TIP3      H2             18.0157156469      -21.6519245060      -39.7840980890  TIP3      3967            0.0000000000
     34154      4160  TIP3      OH2            14.8851288318      -26.6458110601      -31.7415907749  TIP3      3968            0.0000000000
     34155      4160  TIP3      H1             13.9434776829      -26.8574463305      -31.8468700239  TIP3      3968            0.0000000000
     34156      4160  TIP3      H2             15.3150165307      -27.4086823724      -32.1723395353  TIP3      3968            0.0000000000
     34157      4161  TIP3      OH2             7.4021731842      -22.3162863802      -35.6399382296  TIP3      3969            0.0000000000
     34158      4161  TIP3      H1              7.9074361109      -21.5129234642      -35.8488628813  TIP3      3969            0.0000000000
     34159      4161  TIP3      H2              6.5255210302      -22.0820766535      -35.9715982800  TIP3      3969            0.0000000000
     34160      4162  TIP3      OH2             3.1327581437      -27.4837302358      -41.0859901101  TIP3      3970            0.0000000000
     34161      4162  TIP3      H1              3.7590355272      -26.8331618103      -40.7032332388  TIP3      3970            0.0000000000
     34162      4162  TIP3      H2              2.2713842122      -27.1520711649      -40.7804059808  TIP3      3970            0.0000000000
     34163      4163  TIP3      OH2             8.8272613530      -24.6537355273      -36.1145268762  TIP3      3971            0.0000000000
     34164      4163  TIP3      H1              8.5174846005      -23.7299122643      -36.0377682566  TIP3      3971            0.0000000000
     34165      4163  TIP3      H2              8.0981164113      -25.1371239410      -35.6780067081  TIP3      3971            0.0000000000
     34166      4164  TIP3      OH2             9.2757292780      -20.4648578813      -29.7156418863  TIP3      3972            0.0000000000
     34167      4164  TIP3      H1              9.7300641094      -19.6562404735      -29.9999322221  TIP3      3972            0.0000000000
     34168      4164  TIP3      H2              9.8872671620      -20.8041358764      -29.0381468089  TIP3      3972            0.0000000000
     34169      4165  TIP3      OH2             7.5065061201      -19.6533881651      -36.6019441846  TIP3      3973            0.0000000000
     34170      4165  TIP3      H1              6.5445380487      -19.5223361167      -36.4702951119  TIP3      3973            0.0000000000
     34171      4165  TIP3      H2              7.8600173786      -18.8192284326      -36.2375325712  TIP3      3973            0.0000000000
     34172      4166  TIP3      OH2            12.8013361622      -24.4591327822      -30.1021593779  TIP3      3974            0.0000000000
     34173      4166  TIP3      H1             12.4688411332      -24.6518867789      -29.2000796673  TIP3      3974            0.0000000000
     34174      4166  TIP3      H2             13.4400878958      -25.1718922114      -30.2639650417  TIP3      3974            0.0000000000
     34175      4167  TIP3      OH2            15.0744681197      -23.4695756385      -40.9968296951  TIP3      3975            0.0000000000
     34176      4167  TIP3      H1             15.4118220146      -23.8429632759      -40.1545127091  TIP3      3975            0.0000000000
     34177      4167  TIP3      H2             14.1219413737      -23.5855582953      -40.8877209964  TIP3      3975            0.0000000000
     34178      4168  TIP3      OH2            15.6043137722      -19.8933492102      -27.6034823900  TIP3      3976            0.0000000000
     34179      4168  TIP3      H1             14.9142545294      -20.3831741056      -28.0868308297  TIP3      3976            0.0000000000
     34180      4168  TIP3      H2             15.7877416820      -19.1916151617      -28.2587374417  TIP3      3976            0.0000000000
     34181      4169  TIP3      OH2            19.5985438749      -19.0056706502      -40.7644726467  TIP3      3977            0.0000000000
     34182      4169  TIP3      H1             20.3044713811      -18.3717093259      -40.9759459976  TIP3      3977            0.0000000000
     34183      4169  TIP3      H2             18.8817709594      -18.4180090038      -40.4449189195  TIP3      3977            0.0000000000
     34184      4170  TIP3      OH2             3.6679390006      -32.6443528050      -28.1964981300  TIP3      3978            0.0000000000
     34185      4170  TIP3      H1              2.7617741489      -32.2913122224      -28.2275664683  TIP3      3978            0.0000000000
     34186      4170  TIP3      H2              3.5397712800      -33.5093587816      -27.7699344706  TIP3      3978            0.0000000000
     34187      4171  TIP3      OH2            15.9158987824      -24.8060308889      -38.7858050483  TIP3      3979            0.0000000000
     34188      4171  TIP3      H1             15.6827010152      -25.5694476197      -38.2255108997  TIP3      3979            0.0000000000
     34189      4171  TIP3      H2             16.8515210068      -24.6707157789      -38.5502488394  TIP3      3979            0.0000000000
     34190      4172  TIP3      OH2             3.2929693572      -20.8276625510      -29.7900548857  TIP3      3980            0.0000000000
     34191      4172  TIP3      H1              3.5709149065      -21.7606231058      -29.7853021145  TIP3      3980            0.0000000000
     34192      4172  TIP3      H2              3.5594883092      -20.5578041908      -28.9024938621  TIP3      3980            0.0000000000
     34193      4173  TIP3      OH2             8.0405696932      -22.7600765374      -40.0789375421  TIP3      3981            0.0000000000
     34194      4173  TIP3      H1              8.2927677961      -23.3187207633      -39.3323859591  TIP3      3981            0.0000000000
     34195      4173  TIP3      H2              8.1197349100      -21.8492068173      -39.7348886675  TIP3      3981            0.0000000000
     34196      4174  TIP3      OH2             4.5248005599      -25.5351355212      -39.6280560594  TIP3      3982            0.0000000000
     34197      4174  TIP3      H1              3.8703254836      -25.1330120941      -39.0162563403  TIP3      3982            0.0000000000
     34198      4174  TIP3      H2              5.0965556554      -24.7765315297      -39.8391369545  TIP3      3982            0.0000000000
     34199      4175  TIP3      OH2            12.4114694178      -32.8690794671      -29.2656481825  TIP3      3983            0.0000000000
     34200      4175  TIP3      H1             13.1323696110      -32.8021001399      -28.6255238272  TIP3      3983            0.0000000000
     34201      4175  TIP3      H2             12.0457767956      -33.7546348922      -29.0854779889  TIP3      3983            0.0000000000
     34202      4176  TIP3      OH2            13.1731653912      -33.2873331652      -38.1522876889  TIP3      3984            0.0000000000
     34203      4176  TIP3      H1             13.3941721293      -32.8157702144      -38.9858934211  TIP3      3984            0.0000000000
     34204      4176  TIP3      H2             13.7254843382      -32.8023848990      -37.5207751981  TIP3      3984            0.0000000000
     34205      4177  TIP3      OH2            10.8403743863      -21.1120540695      -39.3396912045  TIP3      3985            0.0000000000
     34206      4177  TIP3      H1             10.0216954155      -20.5907095303      -39.2857457231  TIP3      3985            0.0000000000
     34207      4177  TIP3      H2             11.3924333978      -20.6172709067      -39.9712764080  TIP3      3985            0.0000000000
     34208      4178  TIP3      OH2            10.3798845153      -31.5588307837      -37.3529813208  TIP3      3986            0.0000000000
     34209      4178  TIP3      H1             11.1578576210      -30.9663121276      -37.3358701068  TIP3      3986            0.0000000000
     34210      4178  TIP3      H2             10.1294361501      -31.6430930064      -36.4136073982  TIP3      3986            0.0000000000
     34211      4179  TIP3      OH2            10.9355419185      -30.5089482496      -28.1754993594  TIP3      3987            0.0000000000
     34212      4179  TIP3      H1             11.0120320941      -29.9523370669      -27.3748331754  TIP3      3987            0.0000000000
     34213      4179  TIP3      H2             11.5980062837      -31.2032512332      -28.0658737964  TIP3      3987            0.0000000000
     34214      4180  TIP3      OH2            11.2595758644      -34.4638332821      -36.4038958731  TIP3      3988            0.0000000000
     34215      4180  TIP3      H1             10.9107583938      -33.7863405318      -35.8015853404  TIP3      3988            0.0000000000
     34216      4180  TIP3      H2             11.9067667736      -33.9282124318      -36.9244493730  TIP3      3988            0.0000000000
     34217      4181  TIP3      OH2             8.2057635430      -20.0759224265      -39.3255549664  TIP3      3989            0.0000000000
     34218      4181  TIP3      H1              8.3834368108      -19.2556366374      -39.8314783868  TIP3      3989            0.0000000000
     34219      4181  TIP3      H2              7.9672274362      -19.7340440513      -38.4346264324  TIP3      3989            0.0000000000
     34220      4182  TIP3      OH2             6.8807488596      -33.3850922924      -39.7533861357  TIP3      3990            0.0000000000
     34221      4182  TIP3      H1              6.8361638934      -32.4837160323      -39.3740201172  TIP3      3990            0.0000000000
     34222      4182  TIP3      H2              7.7959810544      -33.5820869693      -39.4686460223  TIP3      3990            0.0000000000
     34223      4183  TIP3      OH2            17.1092576387      -32.6366224122      -27.3134258699  TIP3      3991            0.0000000000
     34224      4183  TIP3      H1             16.1813620586      -32.3234227125      -27.4406323300  TIP3      3991            0.0000000000
     34225      4183  TIP3      H2             17.4164235367      -32.6518295609      -28.2367595612  TIP3      3991            0.0000000000
     34226      4184  TIP3      OH2            15.7245512266      -28.8510102377      -33.3015816039  TIP3      3992            0.0000000000
     34227      4184  TIP3      H1             14.9001256573      -29.2936622325      -33.5803933686  TIP3      3992            0.0000000000
     34228      4184  TIP3      H2             16.2020492234      -29.5403471406      -32.7843432135  TIP3      3992            0.0000000000
     34229      4185  TIP3      OH2             5.1344299653      -22.9226093720      -40.7042028541  TIP3      3993            0.0000000000
     34230      4185  TIP3      H1              5.7934060048      -22.2932587451      -40.3957917418  TIP3      3993            0.0000000000
     34231      4185  TIP3      H2              5.6488204903      -23.3951828019      -41.3890349394  TIP3      3993            0.0000000000
     34232      4186  TIP3      OH2             3.5318977081      -30.1902720356      -41.5161234796  TIP3      3994            0.0000000000
     34233      4186  TIP3      H1              3.5711941743      -29.2180183574      -41.3655478978  TIP3      3994            0.0000000000
     34234      4186  TIP3      H2              2.6965064118      -30.2033050923      -41.9649212427  TIP3      3994            0.0000000000
     34235      4187  TIP3      OH2            16.7833907427      -19.5828464306      -31.6075490545  TIP3      3995            0.0000000000
     34236      4187  TIP3      H1             16.6982031971      -18.9265817350      -32.3296722379  TIP3      3995            0.0000000000
     34237      4187  TIP3      H2             17.7533138734      -19.5443125401      -31.4612684988  TIP3      3995            0.0000000000
     34238      4188  TIP3      OH2             4.0425272654      -35.3117351346      -32.7753958705  TIP3      3996            0.0000000000
     34239      4188  TIP3      H1              4.0985467878      -35.4159634897      -33.7541684971  TIP3      3996            0.0000000000
     34240      4188  TIP3      H2              3.8964211805      -36.2351455343      -32.5437247273  TIP3      3996            0.0000000000
     34241      4189  TIP3      OH2             3.2523058493      -21.5124462985      -36.6582518782  TIP3      3997            0.0000000000
     34242      4189  TIP3      H1              2.3765182460      -21.1119878352      -36.7466282542  TIP3      3997            0.0000000000
     34243      4189  TIP3      H2              3.7179316965      -21.0925350459      -37.3940366006  TIP3      3997            0.0000000000
     34244      4190  TIP3      OH2             7.1210235365      -20.0094919443      -23.7836417475  TIP3      3998            0.0000000000
     34245      4190  TIP3      H1              7.8907319863      -20.4897110381      -23.4595418879  TIP3      3998            0.0000000000
     34246      4190  TIP3      H2              7.0984534032      -20.2480359517      -24.7245874206  TIP3      3998            0.0000000000
     34247      4191  TIP3      OH2            11.6136062675      -20.4116877143      -41.8210640811  TIP3      3999            0.0000000000
     34248      4191  TIP3      H1             10.7762217945      -20.9024180386      -41.9144160946  TIP3      3999            0.0000000000
     34249      4191  TIP3      H2             12.1080818253      -20.8747398642      -42.4996821309  TIP3      3999            0.0000000000
     34250      4192  TIP3      OH2            13.6438430079      -21.5978289523      -25.0626765765  TIP3      4000            0.0000000000
     34251      4192  TIP3      H1             13.3150902038      -22.4808646592      -24.7927672533  TIP3      4000            0.0000000000
     34252      4192  TIP3      H2             14.4045384153      -21.4591338439      -24.4598743045  TIP3      4000            0.0000000000
     34253      4193  TIP3      OH2            15.8261557384      -20.7002886068      -42.1989615369  TIP3      4001            0.0000000000
     34254      4193  TIP3      H1             16.1017573560      -21.4806304716      -41.6678251645  TIP3      4001            0.0000000000
     34255      4193  TIP3      H2             16.6097319263      -20.4944170715      -42.7212570931  TIP3      4001            0.0000000000
     34256      4194  TIP3      OH2             2.3985686964      -25.1618532275      -24.4503199389  TIP3      4002            0.0000000000
     34257      4194  TIP3      H1              2.5026878067      -26.0724185688      -24.7576101748  TIP3      4002            0.0000000000
     34258      4194  TIP3      H2              1.6063861744      -24.8552146042      -24.9361814669  TIP3      4002            0.0000000000
     34259      4195  TIP3      OH2             6.7938988532      -24.7083822203      -42.2482642556  TIP3      4003            0.0000000000
     34260      4195  TIP3      H1              6.8447260174      -25.5448205758      -41.7761731543  TIP3      4003            0.0000000000
     34261      4195  TIP3      H2              7.3576333631      -24.9307188594      -43.0165099977  TIP3      4003            0.0000000000
     34262      4196  TIP3      OH2             9.1260553540      -25.1291455830      -25.0512223752  TIP3      4004            0.0000000000
     34263      4196  TIP3      H1              8.7514940199      -24.8384070715      -25.9012700772  TIP3      4004            0.0000000000
     34264      4196  TIP3      H2              9.1348712260      -26.1188547932      -25.1006153676  TIP3      4004            0.0000000000
     34265      4197  TIP3      OH2            14.7813400732      -25.2751945461      -27.5962174720  TIP3      4005            0.0000000000
     34266      4197  TIP3      H1             15.5554482636      -24.6848963355      -27.7107117415  TIP3      4005            0.0000000000
     34267      4197  TIP3      H2             14.0730831642      -24.6166638343      -27.5781137003  TIP3      4005            0.0000000000
     34268      4198  TIP3      OH2             3.3257208908      -27.8773030507      -24.9999474740  TIP3      4006            0.0000000000
     34269      4198  TIP3      H1              3.6795719831      -28.7652093792      -25.1248024994  TIP3      4006            0.0000000000
     34270      4198  TIP3      H2              3.0061564679      -27.9104677324      -24.0993225931  TIP3      4006            0.0000000000
     34271      4199  TIP3      OH2             7.9190639346      -26.7485313926      -39.9663900536  TIP3      4007            0.0000000000
     34272      4199  TIP3      H1              7.4162114315      -27.2795115896      -39.3290724477  TIP3      4007            0.0000000000
     34273      4199  TIP3      H2              8.2192330970      -27.4399285448      -40.6016282013  TIP3      4007            0.0000000000
     34274      4200  TIP3      OH2             7.1734837399      -28.9578681496      -27.6663167151  TIP3      4008            0.0000000000
     34275      4200  TIP3      H1              6.5778636210      -28.2349440313      -27.3999499404  TIP3      4008            0.0000000000
     34276      4200  TIP3      H2              7.5663190745      -28.5882992146      -28.4761199152  TIP3      4008            0.0000000000
     34277      4201  TIP3      OH2             8.9898876225      -28.5263643560      -41.7575213140  TIP3      4009            0.0000000000
     34278      4201  TIP3      H1              8.8709178975      -28.7262124405      -42.6961678099  TIP3      4009            0.0000000000
     34279      4201  TIP3      H2              9.9687146978      -28.4471216529      -41.6607535951  TIP3      4009            0.0000000000
     34280      4202  TIP3      OH2            12.2256721982      -26.3682412608      -24.3139908879  TIP3      4010            0.0000000000
     34281      4202  TIP3      H1             13.1784835410      -26.4226805944      -24.4326770005  TIP3      4010            0.0000000000
     34282      4202  TIP3      H2             12.0544988677      -27.1417299622      -23.7653700623  TIP3      4010            0.0000000000
     34283      4203  TIP3      OH2            18.1878595694      -26.0970376466       42.7513967363  TIP3      4011            0.0000000000
     34284      4203  TIP3      H1             18.0739566315      -26.5901174296       41.9222895362  TIP3      4011            0.0000000000
     34285      4203  TIP3      H2             18.3891496702      -25.1915131818       42.4816153526  TIP3      4011            0.0000000000
     34286      4204  TIP3      OH2             7.6020321680      -31.5782967581      -26.6066756597  TIP3      4012            0.0000000000
     34287      4204  TIP3      H1              7.6923127856      -32.2959754471      -27.2536943841  TIP3      4012            0.0000000000
     34288      4204  TIP3      H2              7.5307433907      -30.7713757159      -27.1579791366  TIP3      4012            0.0000000000
     34289      4205  TIP3      OH2             7.9754265187      -33.1789742589      -29.0831912481  TIP3      4013            0.0000000000
     34290      4205  TIP3      H1              8.4950794541      -32.7060735339      -29.7740002013  TIP3      4013            0.0000000000
     34291      4205  TIP3      H2              7.0829097671      -33.2843184169      -29.4913552961  TIP3      4013            0.0000000000
     34292      4206  TIP3      OH2             9.5186583381      -27.7163276671      -28.8168324384  TIP3      4014            0.0000000000
     34293      4206  TIP3      H1             10.2767776839      -27.8764830132      -29.3887727372  TIP3      4014            0.0000000000
     34294      4206  TIP3      H2              9.1625773485      -26.8749529619      -29.1445265607  TIP3      4014            0.0000000000
     34295      4207  TIP3      OH2            13.9633082967      -29.9267651829      -23.8351454202  TIP3      4015            0.0000000000
     34296      4207  TIP3      H1             14.1412342784      -30.8663629527      -23.9426270112  TIP3      4015            0.0000000000
     34297      4207  TIP3      H2             14.8232832927      -29.5012742858      -23.8856041872  TIP3      4015            0.0000000000
     34298      4208  TIP3      OH2            15.2541968026      -27.1622127971      -25.6963382213  TIP3      4016            0.0000000000
     34299      4208  TIP3      H1             15.0005228974      -26.4317671910      -26.3048924810  TIP3      4016            0.0000000000
     34300      4208  TIP3      H2             16.2088488363      -27.1964916029      -25.8976576692  TIP3      4016            0.0000000000
     34301      4209  TIP3      OH2             6.0349667224      -30.3371870994      -24.6714182053  TIP3      4017            0.0000000000
     34302      4209  TIP3      H1              5.2651438151      -30.9196748442      -24.8471381332  TIP3      4017            0.0000000000
     34303      4209  TIP3      H2              6.6859711709      -30.6795882721      -25.3105168763  TIP3      4017            0.0000000000
     34304      4210  TIP3      OH2             8.6209139620      -35.5703986098      -28.3938782954  TIP3      4018            0.0000000000
     34305      4210  TIP3      H1              8.5808733525      -34.6340267364      -28.7051475533  TIP3      4018            0.0000000000
     34306      4210  TIP3      H2              8.0475145900      -35.9874010475      -29.0508922551  TIP3      4018            0.0000000000
     34307      4211  TIP3      OH2            10.0311468674      -31.4406541462      -25.0762311446  TIP3      4019            0.0000000000
     34308      4211  TIP3      H1              9.7476833504      -31.6616223744      -24.1640452913  TIP3      4019            0.0000000000
     34309      4211  TIP3      H2              9.2188035989      -31.6365464132      -25.5774424319  TIP3      4019            0.0000000000
     34310      4212  TIP3      OH2            12.7523996692      -32.2829959851      -25.9700148688  TIP3      4020            0.0000000000
     34311      4212  TIP3      H1             11.7878571484      -32.2461721954      -25.8344667978  TIP3      4020            0.0000000000
     34312      4212  TIP3      H2             13.0377432695      -32.9090292544      -25.2816946627  TIP3      4020            0.0000000000
     34313      4213  TIP3      OH2            14.3139459439      -33.5585198329      -23.9870585322  TIP3      4021            0.0000000000
     34314      4213  TIP3      H1             14.2756832286      -34.5543246023      -24.0343728725  TIP3      4021            0.0000000000
     34315      4213  TIP3      H2             14.0204833012      -33.4070188894      -23.0935828052  TIP3      4021            0.0000000000
     34316      4214  TIP3      OH2             4.1255268254      -32.3647011659      -24.9716273822  TIP3      4022            0.0000000000
     34317      4214  TIP3      H1              4.3759979348      -33.1334652487      -25.5141339647  TIP3      4022            0.0000000000
     34318      4214  TIP3      H2              4.0849404005      -32.8285519085      -24.0867872009  TIP3      4022            0.0000000000
     34319      4215  TIP3      OH2             8.9739457021       36.6215106446      -25.9453947791  TIP3      4023            0.0000000000
     34320      4215  TIP3      H1              9.6630896190       35.9599426585      -25.9131187943  TIP3      4023            0.0000000000
     34321      4215  TIP3      H2              8.8361149469       36.8295634020      -26.8966320228  TIP3      4023            0.0000000000
     34322      4216  TIP3      OH2             9.3820199248      -34.6901905525      -23.9097313968  TIP3      4024            0.0000000000
     34323      4216  TIP3      H1              9.2055281119      -35.2409792856      -24.6915194503  TIP3      4024            0.0000000000
     34324      4216  TIP3      H2              8.7443498661      -33.9606745265      -23.9487098304  TIP3      4024            0.0000000000
     34325      4217  TIP3      OH2             8.8208447845      -17.8508022869      -40.7428453592  TIP3      4025            0.0000000000
     34326      4217  TIP3      H1              9.7913675597      -17.7432816520      -40.6083834810  TIP3      4025            0.0000000000
     34327      4217  TIP3      H2              8.6430175658      -17.1751311754      -41.3947484487  TIP3      4025            0.0000000000
     34328      4218  TIP3      OH2             2.3936204810      -23.2540585893      -41.2093212607  TIP3      4026            0.0000000000
     34329      4218  TIP3      H1              3.3535162992      -23.1609133879      -40.9960599407  TIP3      4026            0.0000000000
     34330      4218  TIP3      H2              2.4251271224      -23.8502364674      -41.9617386300  TIP3      4026            0.0000000000
     34331      4219  TIP3      OH2             1.1482522838      -17.8723714664      -36.1958596829  TIP3      4027            0.0000000000
     34332      4219  TIP3      H1              0.4454935910      -18.3346575666      -36.7201132177  TIP3      4027            0.0000000000
     34333      4219  TIP3      H2              1.4243354840      -18.5965445296      -35.6169056438  TIP3      4027            0.0000000000
     34334      4220  TIP3      OH2             1.9648165941      -19.6997728675      -34.3347389709  TIP3      4028            0.0000000000
     34335      4220  TIP3      H1              1.6280215295      -20.6126375237      -34.2195648900  TIP3      4028            0.0000000000
     34336      4220  TIP3      H2              2.2228658807      -19.5192162571      -33.4263990810  TIP3      4028            0.0000000000
     34337      4221  TIP3      OH2            19.4947651933      -18.9264762977      -31.4318107846  TIP3      4029            0.0000000000
     34338      4221  TIP3      H1             19.5442129348      -18.8043880746      -30.4717295122  TIP3      4029            0.0000000000
     34339      4221  TIP3      H2             20.2241979638      -18.3840073373      -31.7488371013  TIP3      4029            0.0000000000
     34340      4222  TIP3      OH2            19.0936147302      -19.3483186571      -28.4909262813  TIP3      4030            0.0000000000
     34341      4222  TIP3      H1             18.6089358261      -20.1212772080      -28.8631156513  TIP3      4030            0.0000000000
     34342      4222  TIP3      H2             19.5774696998      -19.8070881051      -27.7843387840  TIP3      4030            0.0000000000
     34343      4223  TIP3      OH2            18.8787375260      -25.3553735841      -38.4199250549  TIP3      4031            0.0000000000
     34344      4223  TIP3      H1             19.6762674105      -24.8699788182      -38.1599324383  TIP3      4031            0.0000000000
     34345      4223  TIP3      H2             18.8287283922      -26.0161582795      -37.7000765482  TIP3      4031            0.0000000000
     34346      4224  TIP3      OH2            19.2094379129      -27.2563448748      -36.5071549554  TIP3      4032            0.0000000000
     34347      4224  TIP3      H1             18.4538193458      -27.7461947824      -36.1136904448  TIP3      4032            0.0000000000
     34348      4224  TIP3      H2             19.7969138168      -27.0792587063      -35.7430743170  TIP3      4032            0.0000000000
     34349      4225  TIP3      OH2            18.9613342813      -24.5262059903      -31.5185918686  TIP3      4033            0.0000000000
     34350      4225  TIP3      H1             19.7798274551      -24.9030678534      -31.8875714876  TIP3      4033            0.0000000000
     34351      4225  TIP3      H2             19.1105716031      -23.5719603492      -31.6930929675  TIP3      4033            0.0000000000
     34352      4226  TIP3      OH2            17.5130707151      -21.6270933096      -29.2362738943  TIP3      4034            0.0000000000
     34353      4226  TIP3      H1             16.8217542583      -21.2781741273      -28.6489093058  TIP3      4034            0.0000000000
     34354      4226  TIP3      H2             16.9673953219      -22.0314239894      -29.9457834901  TIP3      4034            0.0000000000
     34355      4227  TIP3      OH2            19.4952627748      -27.4007164437      -40.1272750564  TIP3      4035            0.0000000000
     34356      4227  TIP3      H1             18.9109267790      -27.0279044725      -40.8134273704  TIP3      4035            0.0000000000
     34357      4227  TIP3      H2             19.4246215322      -26.6922213825      -39.4478206293  TIP3      4035            0.0000000000
     34358      4228  TIP3      OH2            17.5086015945      -30.1414481636      -41.4963361883  TIP3      4036            0.0000000000
     34359      4228  TIP3      H1             17.9443063168      -29.5483812095      -42.1309885452  TIP3      4036            0.0000000000
     34360      4228  TIP3      H2             17.6774284146      -30.9854323550      -41.9617373594  TIP3      4036            0.0000000000
     34361      4229  TIP3      OH2            17.0229083414      -28.7512417843      -35.9307455708  TIP3      4037            0.0000000000
     34362      4229  TIP3      H1             16.8740333907      -29.7076947331      -35.9741214428  TIP3      4037            0.0000000000
     34363      4229  TIP3      H2             16.6902261957      -28.5347123187      -35.0407830617  TIP3      4037            0.0000000000
     34364      4230  TIP3      OH2             2.0247145066      -26.6691412234      -31.8756376649  TIP3      4038            0.0000000000
     34365      4230  TIP3      H1              2.2116248264      -26.7501323689      -32.8375149910  TIP3      4038            0.0000000000
     34366      4230  TIP3      H2              2.9201020400      -26.8411376534      -31.5185028488  TIP3      4038            0.0000000000
     34367      4231  TIP3      OH2            17.8607680324      -26.7935330827      -26.2153355132  TIP3      4039            0.0000000000
     34368      4231  TIP3      H1             18.4818629901      -27.5394026851      -26.1038309414  TIP3      4039            0.0000000000
     34369      4231  TIP3      H2             18.4698605176      -26.0284500000      -26.2629698714  TIP3      4039            0.0000000000
     34370      4232  TIP3      OH2            19.3986890211      -28.8850841469      -25.6058303160  TIP3      4040            0.0000000000
     34371      4232  TIP3      H1             18.5197040343      -29.3030732690      -25.7515253425  TIP3      4040            0.0000000000
     34372      4232  TIP3      H2             19.9574270179      -29.6801757067      -25.7066591247  TIP3      4040            0.0000000000
     34373      4233  TIP3      OH2            17.1056658421      -32.7208279498      -42.4478209133  TIP3      4041            0.0000000000
     34374      4233  TIP3      H1             17.7026388593      -33.1647249998      -41.8144216919  TIP3      4041            0.0000000000
     34375      4233  TIP3      H2             16.2337652515      -33.1183128432      -42.2728337780  TIP3      4041            0.0000000000
     34376      4234  TIP3      OH2            16.6906977445      -31.1564821441      -37.4586922607  TIP3      4042            0.0000000000
     34377      4234  TIP3      H1             16.9972465381      -32.0831294232      -37.3524627602  TIP3      4042            0.0000000000
     34378      4234  TIP3      H2             17.4733634655      -30.7615201947      -37.8629395005  TIP3      4042            0.0000000000
     34379      4235  TIP3      OH2            17.3276899743      -30.6105927638      -32.0376906152  TIP3      4043            0.0000000000
     34380      4235  TIP3      H1             18.2906831962      -30.3918205028      -32.0452860474  TIP3      4043            0.0000000000
     34381      4235  TIP3      H2             17.1392315982      -30.4901986886      -31.0930980264  TIP3      4043            0.0000000000
     34382      4236  TIP3      OH2            17.3824961400      -29.8812430897      -29.2746391489  TIP3      4044            0.0000000000
     34383      4236  TIP3      H1             16.5184658564      -29.5980029106      -28.9085544442  TIP3      4044            0.0000000000
     34384      4236  TIP3      H2             17.8299025277      -29.0234756276      -29.4684568873  TIP3      4044            0.0000000000
     34385      4237  TIP3      OH2             1.6678893669      -31.3604908599      -25.7456845841  TIP3      4045            0.0000000000
     34386      4237  TIP3      H1              2.5942796001      -31.5976163486      -25.5309013649  TIP3      4045            0.0000000000
     34387      4237  TIP3      H2              1.1988014479      -32.1701731365      -25.4289312123  TIP3      4045            0.0000000000
     34388      4238  TIP3      OH2            19.7440005537      -35.9062140181      -23.9312365174  TIP3      4046            0.0000000000
     34389      4238  TIP3      H1             19.9661614501      -36.5252363443      -24.6122539521  TIP3      4046            0.0000000000
     34390      4238  TIP3      H2             19.7237642820      -35.0084568423      -24.3228610110  TIP3      4046            0.0000000000
     34391      4239  TIP3      OH2            17.3545009317      -33.8671720038      -37.4248344598  TIP3      4047            0.0000000000
     34392      4239  TIP3      H1             17.5539472988      -34.3373225612      -36.5861483270  TIP3      4047            0.0000000000
     34393      4239  TIP3      H2             16.7602941525      -34.5054847158      -37.8877662829  TIP3      4047            0.0000000000
     34394      4240  TIP3      OH2             2.8194635920      -33.0324379410      -32.9152752413  TIP3      4048            0.0000000000
     34395      4240  TIP3      H1              3.2596321096      -33.8711420413      -32.6272816470  TIP3      4048            0.0000000000
     34396      4240  TIP3      H2              3.3794958290      -32.3766644185      -32.4840328154  TIP3      4048            0.0000000000
     34397      4241  TIP3      OH2             1.1324792484      -30.0839723549      -31.8305721024  TIP3      4049            0.0000000000
     34398      4241  TIP3      H1              1.6931921688      -30.3269528118      -32.5959234441  TIP3      4049            0.0000000000
     34399      4241  TIP3      H2              1.5893982966      -29.2733383491      -31.5629553324  TIP3      4049            0.0000000000
     34400      4242  TIP3      OH2            19.2060699717      -33.8154741558      -25.5749373858  TIP3      4050            0.0000000000
     34401      4242  TIP3      H1             18.2844437177      -33.4802454756      -25.5963540791  TIP3      4050            0.0000000000
     34402      4242  TIP3      H2             19.2176061107      -34.3012179107      -26.4062767304  TIP3      4050            0.0000000000
     34403      4243  TIP3      OH2            19.1969791130      -33.8328796039      -40.8832582787  TIP3      4051            0.0000000000
     34404      4243  TIP3      H1             19.6071316589      -34.5610344913      -41.3829067511  TIP3      4051            0.0000000000
     34405      4243  TIP3      H2             19.9163602399      -33.1853190355      -40.8488497142  TIP3      4051            0.0000000000
     34406      4244  TIP3      OH2             1.4949512464      -33.9276306068      -37.8241177769  TIP3      4052            0.0000000000
     34407      4244  TIP3      H1              0.5640327209      -33.6336630455      -37.8337954999  TIP3      4052            0.0000000000
     34408      4244  TIP3      H2              1.9284535236      -33.3227058601      -38.4486325980  TIP3      4052            0.0000000000
     34409      4245  TIP3      OH2            16.2200540769      -18.8516028946      -35.8089317518  TIP3      4053            0.0000000000
     34410      4245  TIP3      H1             16.9047535332      -19.2045021812      -36.4162866293  TIP3      4053            0.0000000000
     34411      4245  TIP3      H2             16.7694090705      -18.3879425699      -35.1667023753  TIP3      4053            0.0000000000
     34412      4246  TIP3      OH2             1.4477025667      -35.0960142012      -29.4479787456  TIP3      4054            0.0000000000
     34413      4246  TIP3      H1              0.7756756336      -35.3430136216      -28.7980134584  TIP3      4054            0.0000000000
     34414      4246  TIP3      H2              0.9702399123      -34.4861002994      -30.0386152102  TIP3      4054            0.0000000000
     34415      4247  TIP3      OH2             6.5770829150      -20.9669518179      -29.0313732488  TIP3      4055            0.0000000000
     34416      4247  TIP3      H1              6.2415441620      -20.1011183448      -29.3017057293  TIP3      4055            0.0000000000
     34417      4247  TIP3      H2              7.5063478726      -20.8666886220      -29.3296968068  TIP3      4055            0.0000000000
     34418      4248  TIP3      OH2            10.8947285435      -19.5622670103      -26.1069359223  TIP3      4056            0.0000000000
     34419      4248  TIP3      H1             11.0578011397      -19.8556753044      -25.1785637890  TIP3      4056            0.0000000000
     34420      4248  TIP3      H2             11.7815659105      -19.2324488942      -26.3629787657  TIP3      4056            0.0000000000
     34421      4249  TIP3      OH2            13.1975082786      -18.2816457781      -26.7984031348  TIP3      4057            0.0000000000
     34422      4249  TIP3      H1             13.9284284061      -18.8659566050      -27.0552553911  TIP3      4057            0.0000000000
     34423      4249  TIP3      H2             13.5877899659      -17.8387785681      -26.0332427466  TIP3      4057            0.0000000000
     34424      4250  TIP3      OH2            18.2341943558      -35.6294047143      -27.8230005650  TIP3      4058            0.0000000000
     34425      4250  TIP3      H1             17.3710319969      -35.3237558224      -28.1608164811  TIP3      4058            0.0000000000
     34426      4250  TIP3      H2             18.3541285358      -36.4879382547      -28.2773617143  TIP3      4058            0.0000000000
     34427      4251  TIP3      OH2             3.9690191520      -17.7634976741      -29.0145440702  TIP3      4059            0.0000000000
     34428      4251  TIP3      H1              3.2748393961      -17.2090843058      -29.3971058319  TIP3      4059            0.0000000000
     34429      4251  TIP3      H2              3.6744057063      -17.8938525003      -28.1102118292  TIP3      4059            0.0000000000
     34430      4252  TIP3      OH2             6.4602024049      -18.1552110242      -29.9669396874  TIP3      4060            0.0000000000
     34431      4252  TIP3      H1              5.5860950052      -18.0023447944      -29.5440699626  TIP3      4060            0.0000000000
     34432      4252  TIP3      H2              6.4297316040      -17.5390203953      -30.7196927711  TIP3      4060            0.0000000000
     34433      4253  TIP3      OH2            11.1829949144      -18.2305786901      -30.7792359438  TIP3      4061            0.0000000000
     34434      4253  TIP3      H1             10.7201064530      -17.6760266297      -31.4297387120  TIP3      4061            0.0000000000
     34435      4253  TIP3      H2             11.3213271038      -17.5961535102      -30.0427746038  TIP3      4061            0.0000000000
     34436      4254  TIP3      OH2            13.4740676109      -19.4069992043      -29.7463354400  TIP3      4062            0.0000000000
     34437      4254  TIP3      H1             12.6151867518      -19.1490014168      -30.1194687679  TIP3      4062            0.0000000000
     34438      4254  TIP3      H2             13.9459635626      -18.5664422881      -29.8636036766  TIP3      4062            0.0000000000
     34439      4255  TIP3      OH2            16.1015171728      -17.8175842297      -29.5096658639  TIP3      4063            0.0000000000
     34440      4255  TIP3      H1             15.9687778465      -16.8810058605      -29.7794371047  TIP3      4063            0.0000000000
     34441      4255  TIP3      H2             16.2514833803      -18.2228918589      -30.3896318676  TIP3      4063            0.0000000000
     34442      4256  TIP3      OH2             3.4711877187      -19.0117207243      -32.1133331332  TIP3      4064            0.0000000000
     34443      4256  TIP3      H1              3.3838094631      -19.5095807100      -31.2596468809  TIP3      4064            0.0000000000
     34444      4256  TIP3      H2              4.2764083518      -19.4570776438      -32.4701237811  TIP3      4064            0.0000000000
     34445      4257  TIP3      OH2             5.5182443278      -20.3420140958      -33.4070178283  TIP3      4065            0.0000000000
     34446      4257  TIP3      H1              5.3772262220      -21.2913409697      -33.2094808213  TIP3      4065            0.0000000000
     34447      4257  TIP3      H2              6.3981521040      -20.2172802293      -32.9818526527  TIP3      4065            0.0000000000
     34448      4258  TIP3      OH2             8.1364876847      -19.8809485298      -32.5541731141  TIP3      4066            0.0000000000
     34449      4258  TIP3      H1              8.3049659440      -20.8032924933      -32.8177711816  TIP3      4066            0.0000000000
     34450      4258  TIP3      H2              8.1847584061      -19.9347157131      -31.5898695520  TIP3      4066            0.0000000000
     34451      4259  TIP3      OH2            11.4949888924      -34.1676441528      -33.4340658908  TIP3      4067            0.0000000000
     34452      4259  TIP3      H1             10.9023072508      -34.8805091313      -33.1526730784  TIP3      4067            0.0000000000
     34453      4259  TIP3      H2             12.1632964431      -34.6683706466      -33.9418649437  TIP3      4067            0.0000000000
     34454      4260  TIP3      OH2            16.7393081251      -36.1488938116      -33.3157893310  TIP3      4068            0.0000000000
     34455      4260  TIP3      H1             17.3578804427      -35.5958302842      -33.8402122021  TIP3      4068            0.0000000000
     34456      4260  TIP3      H2             15.8724962383      -35.8087373703      -33.5567085589  TIP3      4068            0.0000000000
     34457      4261  TIP3      OH2            18.4322481692      -34.9094849820      -35.0593408069  TIP3      4069            0.0000000000
     34458      4261  TIP3      H1             19.0668468834      -35.4961072145      -35.4873405916  TIP3      4069            0.0000000000
     34459      4261  TIP3      H2             18.9249067555      -34.0669232382      -34.9867022254  TIP3      4069            0.0000000000
     34460      4262  TIP3      OH2             3.9450642386      -35.5682407602      -35.5583845061  TIP3      4070            0.0000000000
     34461      4262  TIP3      H1              3.1669752625      -35.8147601030      -36.0802171485  TIP3      4070            0.0000000000
     34462      4262  TIP3      H2              4.4248122016      -36.4151618771      -35.5282989718  TIP3      4070            0.0000000000
     34463      4263  TIP3      OH2             2.6285088374      -35.8361394113      -39.9553810676  TIP3      4071            0.0000000000
     34464      4263  TIP3      H1              3.2551025657      -35.2066030394      -40.3475334002  TIP3      4071            0.0000000000
     34465      4263  TIP3      H2              2.1794638841      -35.3071002699      -39.2732799784  TIP3      4071            0.0000000000
     34466      4264  TIP3      OH2             8.5038863556      -35.7324471112      -35.7943822770  TIP3      4072            0.0000000000
     34467      4264  TIP3      H1              9.3615746047      -35.2794852733      -35.8266006670  TIP3      4072            0.0000000000
     34468      4264  TIP3      H2              8.3997142025      -35.8949029415      -34.8508095387  TIP3      4072            0.0000000000
     34469      4265  TIP3      OH2            13.8980330856      -35.2982472799      -34.0022437609  TIP3      4073            0.0000000000
     34470      4265  TIP3      H1             14.0432064549      -35.3487216985      -34.9510726128  TIP3      4073            0.0000000000
     34471      4265  TIP3      H2             13.8051760568      -36.2787472777      -33.8806237712  TIP3      4073            0.0000000000
     34472      4266  TIP3      OH2            15.4223372867      -35.5756191865      -38.3970470721  TIP3      4074            0.0000000000
     34473      4266  TIP3      H1             14.6814212198      -35.0229432418      -38.6844949485  TIP3      4074            0.0000000000
     34474      4266  TIP3      H2             15.0325133967      -36.4601892063      -38.3382157045  TIP3      4074            0.0000000000
     34475      4267  TIP3      OH2             2.6598181537      -19.8880166107      -38.8414726093  TIP3      4075            0.0000000000
     34476      4267  TIP3      H1              1.9798076467      -19.8921160321      -39.5417682120  TIP3      4075            0.0000000000
     34477      4267  TIP3      H2              2.6837384170      -18.9359585152      -38.6870628648  TIP3      4075            0.0000000000
     34478      4268  TIP3      OH2             4.5233292371      -34.0059257095      -41.3213349776  TIP3      4076            0.0000000000
     34479      4268  TIP3      H1              5.1060021601      -34.5287922901      -41.8890937449  TIP3      4076            0.0000000000
     34480      4268  TIP3      H2              5.2115225493      -33.6116027668      -40.7349498814  TIP3      4076            0.0000000000
     34481      4269  TIP3      OH2             9.5258690458      -33.6658384945      -38.8936968546  TIP3      4077            0.0000000000
     34482      4269  TIP3      H1              9.8878023403      -34.2189647326      -38.1782054346  TIP3      4077            0.0000000000
     34483      4269  TIP3      H2              9.6642868158      -32.7919416217      -38.4521612701  TIP3      4077            0.0000000000
     34484      4270  TIP3      OH2            11.4894123229      -18.3261716226      -40.4559342659  TIP3      4078            0.0000000000
     34485      4270  TIP3      H1             12.4545922170      -18.3234129100      -40.6198311183  TIP3      4078            0.0000000000
     34486      4270  TIP3      H2             11.3164913822      -19.0335340482      -41.1268625272  TIP3      4078            0.0000000000
     34487      4271  TIP3      OH2            18.1406391433      -18.8947658555      -37.8223479361  TIP3      4079            0.0000000000
     34488      4271  TIP3      H1             18.0566903279      -19.7673953965      -38.2739233348  TIP3      4079            0.0000000000
     34489      4271  TIP3      H2             18.1271346638      -18.2548734407      -38.5493595636  TIP3      4079            0.0000000000
     34490      4272  TIP3      OH2             3.7867599477      -35.1039947827      -26.2631034414  TIP3      4080            0.0000000000
     34491      4272  TIP3      H1              3.4376545297      -35.7998184707      -25.6979097632  TIP3      4080            0.0000000000
     34492      4272  TIP3      H2              4.6726042551      -35.0607927827      -25.8176267148  TIP3      4080            0.0000000000
     34493      4273  TIP3      OH2             5.5804115987      -35.5007181941      -24.5908905075  TIP3      4081            0.0000000000
     34494      4273  TIP3      H1              6.5189926365      -35.7000789478      -24.7485914696  TIP3      4081            0.0000000000
     34495      4273  TIP3      H2              5.4273497597      -36.3195429324      -24.0822756840  TIP3      4081            0.0000000000
     34496      4274  TIP3      OH2             4.4846799605      -18.9141710818      -41.8658753968  TIP3      4082            0.0000000000
     34497      4274  TIP3      H1              4.1862540759      -18.6457119550      -40.9889697034  TIP3      4082            0.0000000000
     34498      4274  TIP3      H2              5.2439521075      -19.4722178381      -41.7036244993  TIP3      4082            0.0000000000
     34499      4275  TIP3      OH2            14.4797236443       36.9378544414      -24.1630581320  TIP3      4083            0.0000000000
     34500      4275  TIP3      H1             14.3236886598       36.2770332230      -23.4707727246  TIP3      4083            0.0000000000
     34501      4275  TIP3      H2             15.2307557612       36.6375909874      -24.6811774093  TIP3      4083            0.0000000000
     34502      4276  TIP3      OH2            17.4789610867      -20.3400912338      -25.6776869910  TIP3      4084            0.0000000000
     34503      4276  TIP3      H1             16.6710422366      -20.4830778802      -26.2161649647  TIP3      4084            0.0000000000
     34504      4276  TIP3      H2             17.3550932905      -19.3955288484      -25.4611507313  TIP3      4084            0.0000000000
     34505      4277  TIP3      OH2            31.9074529804      -26.4732774789      -35.7002954136  TIP3      4085            0.0000000000
     34506      4277  TIP3      H1             31.9206092267      -25.4908192690      -35.7485036790  TIP3      4085            0.0000000000
     34507      4277  TIP3      H2             31.1875023945      -26.6991085965      -36.3118134266  TIP3      4085            0.0000000000
     34508      4278  TIP3      OH2            30.7701053556      -27.2029372895      -32.2136930848  TIP3      4086            0.0000000000
     34509      4278  TIP3      H1             30.7521514656      -27.8527870737      -31.4958492441  TIP3      4086            0.0000000000
     34510      4278  TIP3      H2             30.4472183622      -27.7094139357      -32.9737634009  TIP3      4086            0.0000000000
     34511      4279  TIP3      OH2            23.1237610170      -27.5342049468      -30.6551586596  TIP3      4087            0.0000000000
     34512      4279  TIP3      H1             23.2072978270      -28.2152194806      -29.9543934159  TIP3      4087            0.0000000000
     34513      4279  TIP3      H2             23.8702168871      -26.9584521195      -30.4363223393  TIP3      4087            0.0000000000
     34514      4280  TIP3      OH2            34.4786841890      -24.2757526689      -33.9176976428  TIP3      4088            0.0000000000
     34515      4280  TIP3      H1             34.0519465676      -24.9860800979      -33.4302967256  TIP3      4088            0.0000000000
     34516      4280  TIP3      H2             34.4803124074      -23.5563862891      -33.2649219453  TIP3      4088            0.0000000000
     34517      4281  TIP3      OH2            24.0506493882      -23.0843204213      -32.1502459107  TIP3      4089            0.0000000000
     34518      4281  TIP3      H1             23.7359162075      -23.9498085479      -32.4728587579  TIP3      4089            0.0000000000
     34519      4281  TIP3      H2             25.0056732998      -23.2701767715      -32.1012911820  TIP3      4089            0.0000000000
     34520      4282  TIP3      OH2            20.6928281011      -29.5240532037      -36.6717666483  TIP3      4090            0.0000000000
     34521      4282  TIP3      H1             20.2523107338      -28.6542171029      -36.7213881119  TIP3      4090            0.0000000000
     34522      4282  TIP3      H2             20.1251400113      -30.0583333477      -37.2431104622  TIP3      4090            0.0000000000
     34523      4283  TIP3      OH2            21.3993691895      -27.2848376423      -34.5274785023  TIP3      4091            0.0000000000
     34524      4283  TIP3      H1             21.6630090663      -28.1087503817      -34.0713347150  TIP3      4091            0.0000000000
     34525      4283  TIP3      H2             22.1014438005      -27.1955634503      -35.1884860230  TIP3      4091            0.0000000000
     34526      4284  TIP3      OH2            31.5785723064      -19.1002260488      -33.7054426071  TIP3      4092            0.0000000000
     34527      4284  TIP3      H1             32.2225143239      -19.8014049375      -33.9739345827  TIP3      4092            0.0000000000
     34528      4284  TIP3      H2             31.3534640628      -19.4211613242      -32.8281804095  TIP3      4092            0.0000000000
     34529      4285  TIP3      OH2            29.1503902173      -24.8023178388      -31.7474566923  TIP3      4093            0.0000000000
     34530      4285  TIP3      H1             29.4854085065      -25.4355142452      -32.4000612173  TIP3      4093            0.0000000000
     34531      4285  TIP3      H2             29.9525699312      -24.6479077703      -31.2212154206  TIP3      4093            0.0000000000
     34532      4286  TIP3      OH2            32.3232638579      -30.3295557359      -31.4257604200  TIP3      4094            0.0000000000
     34533      4286  TIP3      H1             32.4768327452      -31.2978570357      -31.4407167123  TIP3      4094            0.0000000000
     34534      4286  TIP3      H2             32.2201810515      -30.1804924218      -32.3863572935  TIP3      4094            0.0000000000
     34535      4287  TIP3      OH2            25.4398963491      -32.2339828929      -34.2073784012  TIP3      4095            0.0000000000
     34536      4287  TIP3      H1             25.5324720500      -31.4008655252      -34.7034806433  TIP3      4095            0.0000000000
     34537      4287  TIP3      H2             25.0217370844      -32.8068236430      -34.8824480283  TIP3      4095            0.0000000000
     34538      4288  TIP3      OH2            33.1917275813      -32.1424813439      -35.8299860650  TIP3      4096            0.0000000000
     34539      4288  TIP3      H1             33.8378621768      -32.4663644742      -35.1572628770  TIP3      4096            0.0000000000
     34540      4288  TIP3      H2             33.7659741128      -31.6119476821      -36.3860488952  TIP3      4096            0.0000000000
     34541      4289  TIP3      OH2            22.0521963880      -29.8391085602      -33.4683272504  TIP3      4097            0.0000000000
     34542      4289  TIP3      H1             22.7239064520      -30.3877451717      -33.0213291701  TIP3      4097            0.0000000000
     34543      4289  TIP3      H2             22.1503343528      -30.1517000607      -34.3826066110  TIP3      4097            0.0000000000
     34544      4290  TIP3      OH2            27.2114656755      -28.2827075014      -34.1662229086  TIP3      4098            0.0000000000
     34545      4290  TIP3      H1             27.8776671180      -28.8625215846      -33.7586208724  TIP3      4098            0.0000000000
     34546      4290  TIP3      H2             26.6896357590      -28.9434351427      -34.6644905342  TIP3      4098            0.0000000000
     34547      4291  TIP3      OH2            24.3175652348      -33.3395338309      -30.1915187300  TIP3      4099            0.0000000000
     34548      4291  TIP3      H1             24.0279469800      -32.7729341647      -30.9340681629  TIP3      4099            0.0000000000
     34549      4291  TIP3      H2             23.6397132529      -33.0985949900      -29.5120047542  TIP3      4099            0.0000000000
     34550      4292  TIP3      OH2            31.6107637669      -23.8782473134      -36.6267825922  TIP3      4100            0.0000000000
     34551      4292  TIP3      H1             31.3493604888      -24.1463960808      -37.5176944224  TIP3      4100            0.0000000000
     34552      4292  TIP3      H2             31.3122511581      -22.9447804351      -36.5702075458  TIP3      4100            0.0000000000
     34553      4293  TIP3      OH2            26.8513869010      -25.7056350009      -29.9215726242  TIP3      4101            0.0000000000
     34554      4293  TIP3      H1             26.1394343563      -25.0628263096      -29.7186321230  TIP3      4101            0.0000000000
     34555      4293  TIP3      H2             27.5548142013      -25.1063543658      -30.2144271229  TIP3      4101            0.0000000000
     34556      4294  TIP3      OH2            34.6845749308      -32.8892015886      -33.7367021701  TIP3      4102            0.0000000000
     34557      4294  TIP3      H1             34.7000347570      -33.6778839520      -33.1984268785  TIP3      4102            0.0000000000
     34558      4294  TIP3      H2             35.4474869273      -32.4058434015      -33.3403746763  TIP3      4102            0.0000000000
     34559      4295  TIP3      OH2            23.8885265645      -31.4501041982      -32.1593790158  TIP3      4103            0.0000000000
     34560      4295  TIP3      H1             24.5385480089      -30.8004578590      -31.8170752870  TIP3      4103            0.0000000000
     34561      4295  TIP3      H2             24.4120355665      -31.8972174535      -32.8714039863  TIP3      4103            0.0000000000
     34562      4296  TIP3      OH2            25.2830520714      -23.7087744240      -29.1334855257  TIP3      4104            0.0000000000
     34563      4296  TIP3      H1             25.2467981641      -22.7840657179      -29.4412402719  TIP3      4104            0.0000000000
     34564      4296  TIP3      H2             24.4180801329      -23.7766864561      -28.6555561430  TIP3      4104            0.0000000000
     34565      4297  TIP3      OH2            21.3920606430      -24.0749841969      -38.3208691026  TIP3      4105            0.0000000000
     34566      4297  TIP3      H1             21.0948283788      -23.7532210387      -39.1905437342  TIP3      4105            0.0000000000
     34567      4297  TIP3      H2             21.3766146021      -23.2445304047      -37.7907785738  TIP3      4105            0.0000000000
     34568      4298  TIP3      OH2            34.7945394626      -22.4891603932      -31.4653031714  TIP3      4106            0.0000000000
     34569      4298  TIP3      H1             33.8374997679      -22.2823559453      -31.4215759074  TIP3      4106            0.0000000000
     34570      4298  TIP3      H2             35.1793562182      -21.6391676785      -31.7591360385  TIP3      4106            0.0000000000
     34571      4299  TIP3      OH2            35.0886830649      -33.9958166390      -30.4168336070  TIP3      4107            0.0000000000
     34572      4299  TIP3      H1             34.4174716120      -33.3124588379      -30.3119877129  TIP3      4107            0.0000000000
     34573      4299  TIP3      H2             35.8823247422      -33.5437549574      -30.7247147024  TIP3      4107            0.0000000000
     34574      4300  TIP3      OH2            28.2608294488      -36.0098393248      -32.8545672985  TIP3      4108            0.0000000000
     34575      4300  TIP3      H1             28.2270181727      -36.9690351023      -32.7161102727  TIP3      4108            0.0000000000
     34576      4300  TIP3      H2             27.4589464209      -35.7365565377      -32.3837732292  TIP3      4108            0.0000000000
     34577      4301  TIP3      OH2            33.1692683816      -20.6997795408      -34.9485832661  TIP3      4109            0.0000000000
     34578      4301  TIP3      H1             33.6581906553      -21.3775402848      -35.4577858161  TIP3      4109            0.0000000000
     34579      4301  TIP3      H2             33.6091911692      -19.8946334208      -35.3050883779  TIP3      4109            0.0000000000
     34580      4302  TIP3      OH2            34.4379385358      -22.7181036884      -36.4534387945  TIP3      4110            0.0000000000
     34581      4302  TIP3      H1             34.1843483400      -23.4294614056      -37.0625512998  TIP3      4110            0.0000000000
     34582      4302  TIP3      H2             34.5000733808      -23.2203921960      -35.6155028532  TIP3      4110            0.0000000000
     34583      4303  TIP3      OH2            35.8359932033      -23.9839967076      -27.8192919132  TIP3      4111            0.0000000000
     34584      4303  TIP3      H1             36.0948978942      -24.6691954800      -28.4661437781  TIP3      4111            0.0000000000
     34585      4303  TIP3      H2             36.2294625847      -23.2227161645      -28.2844679238  TIP3      4111            0.0000000000
     34586      4304  TIP3      OH2            30.5540471932      -27.2216769683      -38.2112180185  TIP3      4112            0.0000000000
     34587      4304  TIP3      H1             29.8673705920      -26.6396789195      -38.5947233940  TIP3      4112            0.0000000000
     34588      4304  TIP3      H2             31.2717041667      -27.1294103913      -38.8641218669  TIP3      4112            0.0000000000
     34589      4305  TIP3      OH2            30.6212288387      -28.6989024042      -41.1205137955  TIP3      4113            0.0000000000
     34590      4305  TIP3      H1             31.3512982001      -28.6943593634      -40.4839962724  TIP3      4113            0.0000000000
     34591      4305  TIP3      H2             30.9516119912      -29.3371949958      -41.7603084059  TIP3      4113            0.0000000000
     34592      4306  TIP3      OH2            33.9781460340      -27.0082440821      -37.3044683971  TIP3      4114            0.0000000000
     34593      4306  TIP3      H1             33.2636666482      -26.7550828885      -36.6741245134  TIP3      4114            0.0000000000
     34594      4306  TIP3      H2             34.4637746537      -27.6497236837      -36.7403127695  TIP3      4114            0.0000000000
     34595      4307  TIP3      OH2            33.9613461023      -28.8353411245      -28.1741898940  TIP3      4115            0.0000000000
     34596      4307  TIP3      H1             33.9117949857      -28.0417896245      -27.6163820627  TIP3      4115            0.0000000000
     34597      4307  TIP3      H2             33.3182062786      -28.5628491016      -28.8582284882  TIP3      4115            0.0000000000
     34598      4308  TIP3      OH2            25.6292927676      -26.3492672361      -35.3604089862  TIP3      4116            0.0000000000
     34599      4308  TIP3      H1             25.3071349132      -26.7446453825      -36.2043974532  TIP3      4116            0.0000000000
     34600      4308  TIP3      H2             26.2410793089      -27.0442506806      -35.0220083240  TIP3      4116            0.0000000000
     34601      4309  TIP3      OH2            26.9490679759      -22.9647206656      -32.6708959212  TIP3      4117            0.0000000000
     34602      4309  TIP3      H1             26.9374473852      -23.4952728776      -33.4779173324  TIP3      4117            0.0000000000
     34603      4309  TIP3      H2             27.7344567044      -23.3261167732      -32.2213305627  TIP3      4117            0.0000000000
     34604      4310  TIP3      OH2            25.9608397565      -27.6069335255      -31.6982937061  TIP3      4118            0.0000000000
     34605      4310  TIP3      H1             26.5156422125      -27.5030297540      -32.4963510408  TIP3      4118            0.0000000000
     34606      4310  TIP3      H2             26.3423502086      -26.9403243318      -31.0855377438  TIP3      4118            0.0000000000
     34607      4311  TIP3      OH2            32.3062777471      -22.0274411587      -31.0060663318  TIP3      4119            0.0000000000
     34608      4311  TIP3      H1             32.0912587021      -21.3992899012      -30.3149027590  TIP3      4119            0.0000000000
     34609      4311  TIP3      H2             32.1152357378      -22.8947375408      -30.5708847177  TIP3      4119            0.0000000000
     34610      4312  TIP3      OH2            26.9164451358      -23.1776108130      -27.0040311999  TIP3      4120            0.0000000000
     34611      4312  TIP3      H1             26.5057309696      -22.4374884331      -26.5067506835  TIP3      4120            0.0000000000
     34612      4312  TIP3      H2             26.2275772865      -23.3738638369      -27.6792789143  TIP3      4120            0.0000000000
     34613      4313  TIP3      OH2            32.8931516910      -27.8477681670      -39.5965177517  TIP3      4121            0.0000000000
     34614      4313  TIP3      H1             33.4273477716      -27.6186632113      -38.7952168871  TIP3      4121            0.0000000000
     34615      4313  TIP3      H2             33.2710993226      -27.2840570426      -40.2950727477  TIP3      4121            0.0000000000
     34616      4314  TIP3      OH2            23.8447407686      -27.0166285760      -27.8253003532  TIP3      4122            0.0000000000
     34617      4314  TIP3      H1             23.8943128460      -26.3455137792      -27.1156087953  TIP3      4122            0.0000000000
     34618      4314  TIP3      H2             22.9118799928      -26.9150896012      -28.0702671529  TIP3      4122            0.0000000000
     34619      4315  TIP3      OH2            30.5902897505      -21.0965946024      -36.1283537429  TIP3      4123            0.0000000000
     34620      4315  TIP3      H1             31.0343659423      -20.7872155983      -35.3277122293  TIP3      4123            0.0000000000
     34621      4315  TIP3      H2             30.0396065156      -20.3466777413      -36.3806577540  TIP3      4123            0.0000000000
     34622      4316  TIP3      OH2            25.1725224940      -21.1932580053      -26.2952649556  TIP3      4124            0.0000000000
     34623      4316  TIP3      H1             25.0833641266      -21.2599056228      -27.2512814945  TIP3      4124            0.0000000000
     34624      4316  TIP3      H2             24.2628123723      -21.2548911018      -25.9477316812  TIP3      4124            0.0000000000
     34625      4317  TIP3      OH2            24.5952287076      -27.3217376019      -37.7424443347  TIP3      4125            0.0000000000
     34626      4317  TIP3      H1             24.3181348141      -26.5477809889      -38.2706284081  TIP3      4125            0.0000000000
     34627      4317  TIP3      H2             23.9359955295      -27.9795553318      -37.9695405553  TIP3      4125            0.0000000000
     34628      4318  TIP3      OH2            20.7073030263      -24.9010028606      -28.8849384654  TIP3      4126            0.0000000000
     34629      4318  TIP3      H1             20.2355110707      -24.9870671300      -29.7304883829  TIP3      4126            0.0000000000
     34630      4318  TIP3      H2             20.7617498412      -25.8431652166      -28.6370979599  TIP3      4126            0.0000000000
     34631      4319  TIP3      OH2            20.4566053311      -22.1824271225      -32.0309782142  TIP3      4127            0.0000000000
     34632      4319  TIP3      H1             21.4127881330      -22.2753796379      -32.1080408014  TIP3      4127            0.0000000000
     34633      4319  TIP3      H2             20.3664933861      -21.3401548646      -31.5738910315  TIP3      4127            0.0000000000
     34634      4320  TIP3      OH2            29.6378453307      -21.9215826869      -27.5343832236  TIP3      4128            0.0000000000
     34635      4320  TIP3      H1             29.6998637404      -21.0930864228      -27.0133534119  TIP3      4128            0.0000000000
     34636      4320  TIP3      H2             28.7760759021      -22.2801150814      -27.2400928269  TIP3      4128            0.0000000000
     34637      4321  TIP3      OH2            30.0679359610      -18.1745643525      -37.7174855362  TIP3      4129            0.0000000000
     34638      4321  TIP3      H1             30.0249858423      -18.2255696943      -38.6829294438  TIP3      4129            0.0000000000
     34639      4321  TIP3      H2             30.1273544038      -17.2087298616      -37.5520756808  TIP3      4129            0.0000000000
     34640      4322  TIP3      OH2            23.7331965836      -19.3008667725      -35.8950887083  TIP3      4130            0.0000000000
     34641      4322  TIP3      H1             23.8496631500      -19.7255654594      -35.0218957186  TIP3      4130            0.0000000000
     34642      4322  TIP3      H2             22.8768028704      -19.7069395220      -36.1441824806  TIP3      4130            0.0000000000
     34643      4323  TIP3      OH2            33.0640048404      -18.9996946857      -40.7696435774  TIP3      4131            0.0000000000
     34644      4323  TIP3      H1             33.5871692699      -19.7293356670      -41.1783407232  TIP3      4131            0.0000000000
     34645      4323  TIP3      H2             33.1575464501      -19.2138667506      -39.8213952553  TIP3      4131            0.0000000000
     34646      4324  TIP3      OH2            32.8063304334      -19.0453671927      -37.9515181021  TIP3      4132            0.0000000000
     34647      4324  TIP3      H1             31.8510726463      -18.9667353396      -37.7612305281  TIP3      4132            0.0000000000
     34648      4324  TIP3      H2             33.0619951738      -19.7838959545      -37.3788734173  TIP3      4132            0.0000000000
     34649      4325  TIP3      OH2            35.3926248392      -29.7989056401      -25.9030695531  TIP3      4133            0.0000000000
     34650      4325  TIP3      H1             35.3088440860      -29.4632585900      -26.7922987769  TIP3      4133            0.0000000000
     34651      4325  TIP3      H2             35.8816576156      -30.6532264915      -26.0619193771  TIP3      4133            0.0000000000
     34652      4326  TIP3      OH2            22.9561423515      -23.6052092660      -27.9378198658  TIP3      4134            0.0000000000
     34653      4326  TIP3      H1             23.1822442122      -23.9257273277      -27.0340064035  TIP3      4134            0.0000000000
     34654      4326  TIP3      H2             22.0847810370      -24.0037494558      -28.1241916190  TIP3      4134            0.0000000000
     34655      4327  TIP3      OH2            25.6310624992      -35.1487453758      -31.9234605199  TIP3      4135            0.0000000000
     34656      4327  TIP3      H1             24.7380375181      -35.2098632674      -32.3181441054  TIP3      4135            0.0000000000
     34657      4327  TIP3      H2             25.5233503735      -34.2919806210      -31.4797144151  TIP3      4135            0.0000000000
     34658      4328  TIP3      OH2            30.2700382295      -35.4339925568      -28.5555801311  TIP3      4136            0.0000000000
     34659      4328  TIP3      H1             30.7080641885      -35.8199053738      -27.7991376816  TIP3      4136            0.0000000000
     34660      4328  TIP3      H2             29.3265230396      -35.5278975602      -28.3565253204  TIP3      4136            0.0000000000
     34661      4329  TIP3      OH2            33.5581033108      -31.6621120822      -27.7586806137  TIP3      4137            0.0000000000
     34662      4329  TIP3      H1             33.0206717904      -31.7914736023      -26.9454521336  TIP3      4137            0.0000000000
     34663      4329  TIP3      H2             33.4470373440      -30.7114965375      -27.9137947466  TIP3      4137            0.0000000000
     34664      4330  TIP3      OH2            34.5046184761      -26.8648736748      -41.8076558611  TIP3      4138            0.0000000000
     34665      4330  TIP3      H1             34.4211458508      -26.9129706099      -42.7740685129  TIP3      4138            0.0000000000
     34666      4330  TIP3      H2             35.2197198435      -26.2335569774      -41.7084071314  TIP3      4138            0.0000000000
     34667      4331  TIP3      OH2            29.9314680598      -32.8855710704      -41.2441273427  TIP3      4139            0.0000000000
     34668      4331  TIP3      H1             29.6370890111      -32.9267736355      -40.3192960207  TIP3      4139            0.0000000000
     34669      4331  TIP3      H2             29.6800421250      -33.7641232706      -41.5420888372  TIP3      4139            0.0000000000
     34670      4332  TIP3      OH2            25.7517393091      -30.1459949922      -30.7152925750  TIP3      4140            0.0000000000
     34671      4332  TIP3      H1             25.0212737894      -30.1599621840      -30.0692440331  TIP3      4140            0.0000000000
     34672      4332  TIP3      H2             25.7092391328      -29.2287582053      -31.0668261234  TIP3      4140            0.0000000000
     34673      4333  TIP3      OH2            25.7095617692      -30.0148561590      -35.8430386590  TIP3      4141            0.0000000000
     34674      4333  TIP3      H1             24.7736313515      -30.2677391991      -35.9745409080  TIP3      4141            0.0000000000
     34675      4333  TIP3      H2             26.0935880600      -30.3150833256      -36.6895618416  TIP3      4141            0.0000000000
     34676      4334  TIP3      OH2            31.2539914502      -29.5171165714      -37.0840484932  TIP3      4142            0.0000000000
     34677      4334  TIP3      H1             30.8277339937      -28.6925857874      -37.4103835300  TIP3      4142            0.0000000000
     34678      4334  TIP3      H2             31.9341138857      -29.6741781633      -37.7568676443  TIP3      4142            0.0000000000
     34679      4335  TIP3      OH2            30.3532249389      -29.3533891782      -25.6764680445  TIP3      4143            0.0000000000
     34680      4335  TIP3      H1             29.7850396555      -30.0765870170      -25.3062509695  TIP3      4143            0.0000000000
     34681      4335  TIP3      H2             31.1223420441      -29.4194083074      -25.0932835414  TIP3      4143            0.0000000000
     34682      4336  TIP3      OH2            32.2415003122      -30.0202881005      -34.2052331144  TIP3      4144            0.0000000000
     34683      4336  TIP3      H1             32.0098688248      -29.4722168405      -34.9736267185  TIP3      4144            0.0000000000
     34684      4336  TIP3      H2             32.3676175519      -30.8739510433      -34.6657197362  TIP3      4144            0.0000000000
     34685      4337  TIP3      OH2            23.3758401170      -29.8765360386      -29.0086048252  TIP3      4145            0.0000000000
     34686      4337  TIP3      H1             23.4495037191      -29.4741942952      -28.1293503159  TIP3      4145            0.0000000000
     34687      4337  TIP3      H2             22.9292031296      -30.7121067125      -28.8150394650  TIP3      4145            0.0000000000
     34688      4338  TIP3      OH2            26.9176232212      -32.2867849892      -41.8541793834  TIP3      4146            0.0000000000
     34689      4338  TIP3      H1             26.3530290626      -32.8880044529      -41.3302183992  TIP3      4146            0.0000000000
     34690      4338  TIP3      H2             26.3128183706      -31.9119400826      -42.4951903203  TIP3      4146            0.0000000000
     34691      4339  TIP3      OH2            20.0426527366      -32.7414724887      -35.0541583241  TIP3      4147            0.0000000000
     34692      4339  TIP3      H1             20.7170270197      -32.7813286657      -34.3439911611  TIP3      4147            0.0000000000
     34693      4339  TIP3      H2             20.4892686286      -33.1429515043      -35.8177589705  TIP3      4147            0.0000000000
     34694      4340  TIP3      OH2            21.3328037250      -32.0344587211      -39.6444420229  TIP3      4148            0.0000000000
     34695      4340  TIP3      H1             21.8125339565      -31.4521199340      -40.2689009232  TIP3      4148            0.0000000000
     34696      4340  TIP3      H2             20.6308085915      -31.4207828398      -39.3437762662  TIP3      4148            0.0000000000
     34697      4341  TIP3      OH2            31.4662763489      -28.4462879004      -29.6711771629  TIP3      4149            0.0000000000
     34698      4341  TIP3      H1             31.8478691011      -29.1407898705      -30.2497215069  TIP3      4149            0.0000000000
     34699      4341  TIP3      H2             31.0007870871      -28.9713162992      -28.9949858849  TIP3      4149            0.0000000000
     34700      4342  TIP3      OH2            28.2661381601      -32.4818400157      -34.8460543353  TIP3      4150            0.0000000000
     34701      4342  TIP3      H1             27.3326838154      -32.4718157037      -34.5286563192  TIP3      4150            0.0000000000
     34702      4342  TIP3      H2             28.7723439101      -32.6210204574      -34.0260473196  TIP3      4150            0.0000000000
     34703      4343  TIP3      OH2            23.0827026435      -30.9134999974      -35.9644411841  TIP3      4151            0.0000000000
     34704      4343  TIP3      H1             22.1950996507      -30.7698829203      -36.3533530497  TIP3      4151            0.0000000000
     34705      4343  TIP3      H2             23.3786370568      -31.7449371445      -36.3725633920  TIP3      4151            0.0000000000
     34706      4344  TIP3      OH2            26.7198681068      -30.8609992455      -38.3365715308  TIP3      4152            0.0000000000
     34707      4344  TIP3      H1             27.6773711979      -30.7622850528      -38.1647175286  TIP3      4152            0.0000000000
     34708      4344  TIP3      H2             26.4905719191      -30.1970585571      -39.0117504123  TIP3      4152            0.0000000000
     34709      4345  TIP3      OH2            32.6082716394      -33.2477056440      -31.5761427928  TIP3      4153            0.0000000000
     34710      4345  TIP3      H1             31.9301320985      -33.1691831530      -30.8850298126  TIP3      4153            0.0000000000
     34711      4345  TIP3      H2             32.1314041963      -33.5003125813      -32.3809509367  TIP3      4153            0.0000000000
     34712      4346  TIP3      OH2            25.4174432259      -29.6985792952      -40.7384964128  TIP3      4154            0.0000000000
     34713      4346  TIP3      H1             24.8636878744      -30.0488758064      -41.4581164655  TIP3      4154            0.0000000000
     34714      4346  TIP3      H2             26.2440226433      -29.4833470704      -41.1998252320  TIP3      4154            0.0000000000
     34715      4347  TIP3      OH2            35.7984363727      -17.5408460946      -25.2397002071  TIP3      4155            0.0000000000
     34716      4347  TIP3      H1             36.1537020239      -17.2057942995      -26.0742755272  TIP3      4155            0.0000000000
     34717      4347  TIP3      H2             36.5343191154      -17.2836171524      -24.6607617176  TIP3      4155            0.0000000000
     34718      4348  TIP3      OH2            23.5639431797      -25.1188220196      -25.6743696513  TIP3      4156            0.0000000000
     34719      4348  TIP3      H1             24.2792701887      -24.8350042315      -25.0706270652  TIP3      4156            0.0000000000
     34720      4348  TIP3      H2             22.7921423602      -24.9541795237      -25.1083897190  TIP3      4156            0.0000000000
     34721      4349  TIP3      OH2            29.5589130828      -29.7197246873      -32.9413498518  TIP3      4157            0.0000000000
     34722      4349  TIP3      H1             30.1586265530      -30.2630070014      -33.4698801348  TIP3      4157            0.0000000000
     34723      4349  TIP3      H2             29.4077940469      -30.2593911555      -32.1530108600  TIP3      4157            0.0000000000
     34724      4350  TIP3      OH2            24.5502449605      -33.5437740902      -36.4856989996  TIP3      4158            0.0000000000
     34725      4350  TIP3      H1             24.2421546417      -34.4642306865      -36.4902803482  TIP3      4158            0.0000000000
     34726      4350  TIP3      H2             25.3306720421      -33.6151612983      -37.0500580127  TIP3      4158            0.0000000000
     34727      4351  TIP3      OH2            28.2044971513      -31.3334943152      -30.5429843672  TIP3      4159            0.0000000000
     34728      4351  TIP3      H1             27.3577121297      -30.8580502147      -30.4194121224  TIP3      4159            0.0000000000
     34729      4351  TIP3      H2             28.7439658501      -31.0288819451      -29.7867657021  TIP3      4159            0.0000000000
     34730      4352  TIP3      OH2            28.7859857357      -25.1753294077      -38.8048465330  TIP3      4160            0.0000000000
     34731      4352  TIP3      H1             27.9859056357      -25.6334511965      -39.1452002100  TIP3      4160            0.0000000000
     34732      4352  TIP3      H2             28.5621808156      -25.0565128180      -37.8626218994  TIP3      4160            0.0000000000
     34733      4353  TIP3      OH2            35.6649222482      -25.9636047648      -30.0267624172  TIP3      4161            0.0000000000
     34734      4353  TIP3      H1             36.3948711932      -25.7831901644      -30.6688167124  TIP3      4161            0.0000000000
     34735      4353  TIP3      H2             34.9045228447      -25.9273350985      -30.6323631795  TIP3      4161            0.0000000000
     34736      4354  TIP3      OH2            32.6659549786      -32.3628521650      -40.6294654730  TIP3      4162            0.0000000000
     34737      4354  TIP3      H1             31.7165106316      -32.2428657722      -40.8170664086  TIP3      4162            0.0000000000
     34738      4354  TIP3      H2             32.9339349075      -31.4754332653      -40.3312563643  TIP3      4162            0.0000000000
     34739      4355  TIP3      OH2            30.2835086044      -24.9053903389      -27.6085546826  TIP3      4163            0.0000000000
     34740      4355  TIP3      H1             29.9433476229      -25.3174169949      -26.8031738507  TIP3      4163            0.0000000000
     34741      4355  TIP3      H2             30.0650798005      -23.9751612668      -27.4872877034  TIP3      4163            0.0000000000
     34742      4356  TIP3      OH2            33.3738542845      -30.4186902132      -39.0314520101  TIP3      4164            0.0000000000
     34743      4356  TIP3      H1             34.2399209273      -30.5505773915      -38.6034263959  TIP3      4164            0.0000000000
     34744      4356  TIP3      H2             33.4383731956      -29.5755097389      -39.4979554783  TIP3      4164            0.0000000000
     34745      4357  TIP3      OH2            23.8885757557      -25.7723715496      -33.0280098867  TIP3      4165            0.0000000000
     34746      4357  TIP3      H1             24.5806337196      -25.8494794423      -33.7125941723  TIP3      4165            0.0000000000
     34747      4357  TIP3      H2             23.9503050749      -26.6301064197      -32.5719893876  TIP3      4165            0.0000000000
     34748      4358  TIP3      OH2            30.8755514790      -23.6992828983      -39.7720112107  TIP3      4166            0.0000000000
     34749      4358  TIP3      H1             30.5310737020      -22.8620793955      -39.4054492921  TIP3      4166            0.0000000000
     34750      4358  TIP3      H2             30.1382130348      -24.3206123295      -39.5853134278  TIP3      4166            0.0000000000
     34751      4359  TIP3      OH2            20.8836586764      -27.3697527617      -27.7661048251  TIP3      4167            0.0000000000
     34752      4359  TIP3      H1             21.0596235776      -27.8075910926      -26.9200490400  TIP3      4167            0.0000000000
     34753      4359  TIP3      H2             20.2681586628      -27.9915457100      -28.1947240270  TIP3      4167            0.0000000000
     34754      4360  TIP3      OH2            27.8793714518      -27.7727300401      -25.6008453213  TIP3      4168            0.0000000000
     34755      4360  TIP3      H1             27.5882387457      -28.1141371396      -26.4546709516  TIP3      4168            0.0000000000
     34756      4360  TIP3      H2             28.7913628847      -28.1195606587      -25.5531582578  TIP3      4168            0.0000000000
     34757      4361  TIP3      OH2            32.5753520335      -22.4755318778      -27.6265620611  TIP3      4169            0.0000000000
     34758      4361  TIP3      H1             31.6576805709      -22.3018617327      -27.8800607520  TIP3      4169            0.0000000000
     34759      4361  TIP3      H2             32.5477333294      -22.1906870756      -26.6978271080  TIP3      4169            0.0000000000
     34760      4362  TIP3      OH2            33.6910515146      -26.6651024486      -31.7401830009  TIP3      4170            0.0000000000
     34761      4362  TIP3      H1             32.7542663401      -26.8857483153      -31.8707656346  TIP3      4170            0.0000000000
     34762      4362  TIP3      H2             34.1675969486      -27.4067412938      -32.1536251484  TIP3      4170            0.0000000000
     34763      4363  TIP3      OH2            26.2560057948      -22.3163787852      -35.6392328124  TIP3      4171            0.0000000000
     34764      4363  TIP3      H1             26.7624615413      -21.5142215536      -35.8484893760  TIP3      4171            0.0000000000
     34765      4363  TIP3      H2             25.3795432697      -22.0814675466      -35.9710866148  TIP3      4171            0.0000000000
     34766      4364  TIP3      OH2            21.9920424116      -27.4568750373      -41.1082619448  TIP3      4172            0.0000000000
     34767      4364  TIP3      H1             22.6164270892      -26.8319610428      -40.6934158420  TIP3      4172            0.0000000000
     34768      4364  TIP3      H2             21.1236318479      -27.1706104346      -40.7775631956  TIP3      4172            0.0000000000
     34769      4365  TIP3      OH2            27.6829122969      -24.6530436659      -36.1146834043  TIP3      4173            0.0000000000
     34770      4365  TIP3      H1             27.3728362630      -23.7297081784      -36.0376264394  TIP3      4173            0.0000000000
     34771      4365  TIP3      H2             26.9542782217      -25.1370849967      -35.6778421322  TIP3      4173            0.0000000000
     34772      4366  TIP3      OH2            28.1310752098      -20.4658277134      -29.7299679140  TIP3      4174            0.0000000000
     34773      4366  TIP3      H1             28.5821391811      -19.6505741139      -29.9962621542  TIP3      4174            0.0000000000
     34774      4366  TIP3      H2             28.7369049156      -20.8048979804      -29.0487104740  TIP3      4174            0.0000000000
     34775      4367  TIP3      OH2            26.3659957952      -19.6427243977      -36.6356924714  TIP3      4175            0.0000000000
     34776      4367  TIP3      H1             25.4016352354      -19.5375934665      -36.4400221106  TIP3      4175            0.0000000000
     34777      4367  TIP3      H2             26.7148858728      -18.8242701025      -36.2313925421  TIP3      4175            0.0000000000
     34778      4368  TIP3      OH2            31.6865438399      -24.4570614830      -30.0854250792  TIP3      4176            0.0000000000
     34779      4368  TIP3      H1             31.3230696652      -24.6603800387      -29.1973266115  TIP3      4176            0.0000000000
     34780      4368  TIP3      H2             32.3024879085      -25.1830606392      -30.2625557157  TIP3      4176            0.0000000000
     34781      4369  TIP3      OH2            33.9573133650      -23.4691497776      -41.0027884076  TIP3      4177            0.0000000000
     34782      4369  TIP3      H1             34.2781343507      -23.8613203023      -40.1659075261  TIP3      4177            0.0000000000
     34783      4369  TIP3      H2             32.9949697946      -23.5818113821      -40.9173572494  TIP3      4177            0.0000000000
     34784      4370  TIP3      OH2            34.4146833146      -19.8758339622      -27.5846433112  TIP3      4178            0.0000000000
     34785      4370  TIP3      H1             33.7559456529      -20.3856699456      -28.0981946676  TIP3      4178            0.0000000000
     34786      4370  TIP3      H2             34.6812198163      -19.1956674226      -28.2447212705  TIP3      4178            0.0000000000
     34787      4371  TIP3      OH2            22.5257114695      -32.6358175618      -28.1804735560  TIP3      4179            0.0000000000
     34788      4371  TIP3      H1             21.6228683711      -32.2716452458      -28.2471187295  TIP3      4179            0.0000000000
     34789      4371  TIP3      H2             22.3801812691      -33.4965741307      -27.7703338636  TIP3      4179            0.0000000000
     34790      4372  TIP3      OH2            34.7831960173      -24.8133043631      -38.7920050335  TIP3      4180            0.0000000000
     34791      4372  TIP3      H1             34.5334428785      -25.5729193148      -38.2181497928  TIP3      4180            0.0000000000
     34792      4372  TIP3      H2             35.7092031845      -24.6758864154      -38.5260050898  TIP3      4180            0.0000000000
     34793      4373  TIP3      OH2            22.1477356937      -20.8385034940      -29.7735426540  TIP3      4181            0.0000000000
     34794      4373  TIP3      H1             22.4370576411      -21.7665905550      -29.7813278986  TIP3      4181            0.0000000000
     34795      4373  TIP3      H2             22.4212905969      -20.5599478380      -28.8888446597  TIP3      4181            0.0000000000
     34796      4374  TIP3      OH2            26.9465268207      -22.7296347354      -40.0998137866  TIP3      4182            0.0000000000
     34797      4374  TIP3      H1             27.1407524061      -23.3284863719      -39.3576965567  TIP3      4182            0.0000000000
     34798      4374  TIP3      H2             26.9703918135      -21.8540170476      -39.6879210518  TIP3      4182            0.0000000000
     34799      4375  TIP3      OH2            23.3763043404      -25.5353351732      -39.6191650569  TIP3      4183            0.0000000000
     34800      4375  TIP3      H1             22.7160895063      -25.1232611802      -39.0149562966  TIP3      4183            0.0000000000
     34801      4375  TIP3      H2             23.9495253590      -24.7815605766      -39.8349840430  TIP3      4183            0.0000000000
     34802      4376  TIP3      OH2            31.2439856362      -32.8671217633      -29.2453736519  TIP3      4184            0.0000000000
     34803      4376  TIP3      H1             31.9903888914      -32.8086058692      -28.6316505806  TIP3      4184            0.0000000000
     34804      4376  TIP3      H2             30.8862148516      -33.7574946908      -29.0756234101  TIP3      4184            0.0000000000
     34805      4377  TIP3      OH2            32.0663271057      -33.2888129626      -38.1548432510  TIP3      4185            0.0000000000
     34806      4377  TIP3      H1             32.2598628039      -32.8110270797      -38.9901110024  TIP3      4185            0.0000000000
     34807      4377  TIP3      H2             32.5966939077      -32.7926932892      -37.5184669024  TIP3      4185            0.0000000000
     34808      4378  TIP3      OH2            29.6712441610      -21.1233911391      -39.3781845016  TIP3      4186            0.0000000000
     34809      4378  TIP3      H1             28.8857560363      -20.5802082623      -39.2488267298  TIP3      4186            0.0000000000
     34810      4378  TIP3      H2             30.2622215611      -20.6122729500      -39.9539670547  TIP3      4186            0.0000000000
     34811      4379  TIP3      OH2            29.2379900211      -31.5621898456      -37.3520717939  TIP3      4187            0.0000000000
     34812      4379  TIP3      H1             30.0117443534      -30.9666587203      -37.3365967324  TIP3      4187            0.0000000000
     34813      4379  TIP3      H2             28.9848809423      -31.6431395310      -36.4131025855  TIP3      4187            0.0000000000
     34814      4380  TIP3      OH2            29.8404828427      -30.5017683603      -28.2138846045  TIP3      4188            0.0000000000
     34815      4380  TIP3      H1             29.8913933689      -29.9653644663      -27.3924212231  TIP3      4188            0.0000000000
     34816      4380  TIP3      H2             30.4466254176      -31.2305691113      -28.0324509907  TIP3      4188            0.0000000000
     34817      4381  TIP3      OH2            30.0849959952      -34.4639853475      -36.4157268666  TIP3      4189            0.0000000000
     34818      4381  TIP3      H1             29.7762064169      -33.7840406403      -35.7951858298  TIP3      4189            0.0000000000
     34819      4381  TIP3      H2             30.7564431597      -33.9420887363      -36.9216308697  TIP3      4189            0.0000000000
     34820      4382  TIP3      OH2            27.0329899800      -20.0327676280      -39.3654850903  TIP3      4190            0.0000000000
     34821      4382  TIP3      H1             27.2525389044      -19.1699061375      -39.7110711982  TIP3      4190            0.0000000000
     34822      4382  TIP3      H2             26.8104944885      -19.7864066526      -38.4258149347  TIP3      4190            0.0000000000
     34823      4383  TIP3      OH2            25.7642496178      -33.4102239268      -39.7478954731  TIP3      4191            0.0000000000
     34824      4383  TIP3      H1             25.6719084246      -32.4962209222      -39.3969806683  TIP3      4191            0.0000000000
     34825      4383  TIP3      H2             26.6786182586      -33.5781348469      -39.4565956761  TIP3      4191            0.0000000000
     34826      4384  TIP3      OH2            35.8688404492      -32.8258545672      -27.4582285423  TIP3      4192            0.0000000000
     34827      4384  TIP3      H1             35.0106817910      -32.3381899367      -27.4843206302  TIP3      4192            0.0000000000
     34828      4384  TIP3      H2             36.2545798306      -32.6311838409      -28.3189601293  TIP3      4192            0.0000000000
     34829      4385  TIP3      OH2            34.5780317646      -28.8505945131      -33.2621114360  TIP3      4193            0.0000000000
     34830      4385  TIP3      H1             33.7604108674      -29.2888359388      -33.5706685376  TIP3      4193            0.0000000000
     34831      4385  TIP3      H2             35.0069940863      -29.5631270899      -32.7785800611  TIP3      4193            0.0000000000
     34832      4386  TIP3      OH2            23.9927582919      -22.9037869745      -40.7209041579  TIP3      4194            0.0000000000
     34833      4386  TIP3      H1             24.6565126488      -22.3055369601      -40.3786974693  TIP3      4194            0.0000000000
     34834      4386  TIP3      H2             24.4982195217      -23.4107450330      -41.3876864332  TIP3      4194            0.0000000000
     34835      4387  TIP3      OH2            22.3739856285      -30.2520992763      -41.5122926816  TIP3      4195            0.0000000000
     34836      4387  TIP3      H1             22.3379705803      -29.2876626883      -41.3956162521  TIP3      4195            0.0000000000
     34837      4387  TIP3      H2             21.5024909081      -30.4566435212      -41.8734107818  TIP3      4195            0.0000000000
     34838      4388  TIP3      OH2            35.7059347649      -19.5723153974      -31.6452153289  TIP3      4196            0.0000000000
     34839      4388  TIP3      H1             35.5469379129      -18.9005149008      -32.3293736127  TIP3      4196            0.0000000000
     34840      4388  TIP3      H2             36.6465464199      -19.4842456108      -31.4729723707  TIP3      4196            0.0000000000
     34841      4389  TIP3      OH2            22.8998851484      -35.3096642724      -32.7800358356  TIP3      4197            0.0000000000
     34842      4389  TIP3      H1             22.9553412772      -35.4100295280      -33.7586900009  TIP3      4197            0.0000000000
     34843      4389  TIP3      H2             22.7513207068      -36.2342648357      -32.5654839250  TIP3      4197            0.0000000000
     34844      4390  TIP3      OH2            22.1411625529      -21.5224899056      -36.6721067352  TIP3      4198            0.0000000000
     34845      4390  TIP3      H1             21.2192138021      -21.1709461011      -36.7199474887  TIP3      4198            0.0000000000
     34846      4390  TIP3      H2             22.5497395168      -21.0622235942      -37.4039230473  TIP3      4198            0.0000000000
     34847      4391  TIP3      OH2            21.3121198606      -18.8673778110      -25.3750547874  TIP3      4199            0.0000000000
     34848      4391  TIP3      H1             21.9220444855      -19.1179703431      -24.6606334666  TIP3      4199            0.0000000000
     34849      4391  TIP3      H2             20.9069223051      -19.7285181040      -25.5887183959  TIP3      4199            0.0000000000
     34850      4392  TIP3      OH2            30.4108552231      -20.3824645228      -41.8493572418  TIP3      4200            0.0000000000
     34851      4392  TIP3      H1             29.6589837151      -20.9881295517      -41.9111550225  TIP3      4200            0.0000000000
     34852      4392  TIP3      H2             30.9817279246      -20.8523835846      -42.4747021879  TIP3      4200            0.0000000000
     34853      4393  TIP3      OH2            32.5213830974      -21.5857029071      -25.0540988330  TIP3      4201            0.0000000000
     34854      4393  TIP3      H1             32.1667606501      -22.4570844380      -24.7642936902  TIP3      4201            0.0000000000
     34855      4393  TIP3      H2             33.2927759071      -21.4954794027      -24.4675048592  TIP3      4201            0.0000000000
     34856      4394  TIP3      OH2            34.6559461545      -20.7120925850      -42.1951800829  TIP3      4202            0.0000000000
     34857      4394  TIP3      H1             34.9473579854      -21.5007332683      -41.7112535316  TIP3      4202            0.0000000000
     34858      4394  TIP3      H2             35.4381539831      -20.4665769114      -42.7035893422  TIP3      4202            0.0000000000
     34859      4395  TIP3      OH2            21.1381120849      -25.2011141253      -24.3658494702  TIP3      4203            0.0000000000
     34860      4395  TIP3      H1             21.4099738389      -26.0285960967      -24.7872587973  TIP3      4203            0.0000000000
     34861      4395  TIP3      H2             20.4969433337      -24.8473700043      -25.0087139979  TIP3      4203            0.0000000000
     34862      4396  TIP3      OH2            25.6526277663      -24.7062217975      -42.2400074698  TIP3      4204            0.0000000000
     34863      4396  TIP3      H1             25.6998144671      -25.5457329935      -41.7762215521  TIP3      4204            0.0000000000
     34864      4396  TIP3      H2             26.2075761066      -24.9305655809      -43.0154741735  TIP3      4204            0.0000000000
     34865      4397  TIP3      OH2            27.9308700187      -25.1462192990      -24.9763615983  TIP3      4205            0.0000000000
     34866      4397  TIP3      H1             27.6025404208      -24.8329444275      -25.8375307617  TIP3      4205            0.0000000000
     34867      4397  TIP3      H2             28.0059470074      -26.1178313536      -25.1155207193  TIP3      4205            0.0000000000
     34868      4398  TIP3      OH2            33.6016844717      -25.2989669044      -27.6084939762  TIP3      4206            0.0000000000
     34869      4398  TIP3      H1             34.3870679965      -24.7008107668      -27.6886315628  TIP3      4206            0.0000000000
     34870      4398  TIP3      H2             32.9135725845      -24.6223109244      -27.5763811556  TIP3      4206            0.0000000000
     34871      4399  TIP3      OH2            22.1208055913      -27.8947663980      -25.0086883467  TIP3      4207            0.0000000000
     34872      4399  TIP3      H1             22.4974817026      -28.7600446100      -25.1886932145  TIP3      4207            0.0000000000
     34873      4399  TIP3      H2             21.8637627788      -27.9271602050      -24.0816369888  TIP3      4207            0.0000000000
     34874      4400  TIP3      OH2            26.7792048300      -26.7487554380      -39.9628520776  TIP3      4208            0.0000000000
     34875      4400  TIP3      H1             26.2730078586      -27.2798822346      -39.3290119006  TIP3      4208            0.0000000000
     34876      4400  TIP3      H2             27.0754763927      -27.4406240975      -40.6010173718  TIP3      4208            0.0000000000
     34877      4401  TIP3      OH2            26.0275265043      -28.9519362393      -27.6594574834  TIP3      4209            0.0000000000
     34878      4401  TIP3      H1             25.4475221063      -28.2184168505      -27.4078734484  TIP3      4209            0.0000000000
     34879      4401  TIP3      H2             26.4183866005      -28.5978172288      -28.4809038273  TIP3      4209            0.0000000000
     34880      4402  TIP3      OH2            27.8469794909      -28.5249161332      -41.7587700956  TIP3      4210            0.0000000000
     34881      4402  TIP3      H1             27.7271666722      -28.7137327545      -42.6993562374  TIP3      4210            0.0000000000
     34882      4402  TIP3      H2             28.8256073702      -28.4473240771      -41.6614713679  TIP3      4210            0.0000000000
     34883      4403  TIP3      OH2            31.0876253729      -26.4087438259      -24.3375515999  TIP3      4211            0.0000000000
     34884      4403  TIP3      H1             32.0474391906      -26.3658399070      -24.4185086811  TIP3      4211            0.0000000000
     34885      4403  TIP3      H2             30.9353607782      -27.1599998147      -23.7585104880  TIP3      4211            0.0000000000
     34886      4404  TIP3      OH2            26.3763314867      -31.5987942719      -26.5855164063  TIP3      4212            0.0000000000
     34887      4404  TIP3      H1             26.5569145880      -32.2856884036      -27.2448200150  TIP3      4212            0.0000000000
     34888      4404  TIP3      H2             26.3943477307      -30.7729886662      -27.1127833158  TIP3      4212            0.0000000000
     34889      4405  TIP3      OH2            26.8378481923      -33.1771418281      -29.0891512035  TIP3      4213            0.0000000000
     34890      4405  TIP3      H1             27.3560542278      -32.7003511107      -29.7743567076  TIP3      4213            0.0000000000
     34891      4405  TIP3      H2             25.9491862909      -33.2762731295      -29.5013272747  TIP3      4213            0.0000000000
     34892      4406  TIP3      OH2            28.3797019962      -27.7159104823      -28.8175498328  TIP3      4214            0.0000000000
     34893      4406  TIP3      H1             29.1379679261      -27.8729152207      -29.3888270260  TIP3      4214            0.0000000000
     34894      4406  TIP3      H2             28.0157177417      -26.8759153403      -29.1366958659  TIP3      4214            0.0000000000
     34895      4407  TIP3      OH2            32.7986908051      -29.9185544469      -23.8473141361  TIP3      4215            0.0000000000
     34896      4407  TIP3      H1             33.0118515352      -30.8507881839      -23.9592453402  TIP3      4215            0.0000000000
     34897      4407  TIP3      H2             33.6768426151      -29.5093551383      -23.8809142242  TIP3      4215            0.0000000000
     34898      4408  TIP3      OH2            34.1267887113      -27.1365356746      -25.7064594475  TIP3      4216            0.0000000000
     34899      4408  TIP3      H1             33.8573400501      -26.4195155393      -26.3200750559  TIP3      4216            0.0000000000
     34900      4408  TIP3      H2             35.0530164131      -27.2501777276      -25.9087165344  TIP3      4216            0.0000000000
     34901      4409  TIP3      OH2            27.4475784395      -35.5631991534      -28.3699594250  TIP3      4217            0.0000000000
     34902      4409  TIP3      H1             27.4470134035      -34.6314191902      -28.7038666183  TIP3      4217            0.0000000000
     34903      4409  TIP3      H2             26.9236772258      -35.9902317376      -29.0655506687  TIP3      4217            0.0000000000
     34904      4410  TIP3      OH2            28.8419198126      -31.4126484542      -25.1570510279  TIP3      4218            0.0000000000
     34905      4410  TIP3      H1             28.6995700856      -31.6926772452      -24.2150004244  TIP3      4218            0.0000000000
     34906      4410  TIP3      H2             28.0036715975      -31.6363962377      -25.5859222649  TIP3      4218            0.0000000000
     34907      4411  TIP3      OH2            31.6064875797      -32.3103861267      -25.9845895307  TIP3      4219            0.0000000000
     34908      4411  TIP3      H1             30.6446377828      -32.2434798180      -25.8176813211  TIP3      4219            0.0000000000
     34909      4411  TIP3      H2             31.8527115853      -32.9312046033      -25.2786127264  TIP3      4219            0.0000000000
     34910      4412  TIP3      OH2            23.0834713291      -32.3741266191      -24.8711175733  TIP3      4220            0.0000000000
     34911      4412  TIP3      H1             23.2236990920      -33.0827351619      -25.5376936646  TIP3      4220            0.0000000000
     34912      4412  TIP3      H2             22.8559540823      -32.8802114978      -24.0879935378  TIP3      4220            0.0000000000
     34913      4413  TIP3      OH2            27.7688086338       36.5640945261      -25.9455958415  TIP3      4221            0.0000000000
     34914      4413  TIP3      H1             28.5382476020       35.9951751215      -25.9232088046  TIP3      4221            0.0000000000
     34915      4413  TIP3      H2             27.7212349539       36.8462176478      -26.8859685735  TIP3      4221            0.0000000000
     34916      4414  TIP3      OH2            28.0940724711      -34.7603156411      -23.9141137756  TIP3      4222            0.0000000000
     34917      4414  TIP3      H1             28.0728481155      -35.2228773556      -24.7592009691  TIP3      4222            0.0000000000
     34918      4414  TIP3      H2             27.6441242252      -33.9221183969      -24.0346556291  TIP3      4222            0.0000000000
     34919      4415  TIP3      OH2            27.7506511135      -17.5017611668      -40.4778545042  TIP3      4223            0.0000000000
     34920      4415  TIP3      H1             28.7412579924      -17.5991034363      -40.4822420105  TIP3      4223            0.0000000000
     34921      4415  TIP3      H2             27.5702783973      -17.0004399955      -41.2748065764  TIP3      4223            0.0000000000
     34922      4416  TIP3      OH2            21.2593981564      -23.2496339376      -41.2239388158  TIP3      4224            0.0000000000
     34923      4416  TIP3      H1             22.2130347440      -23.1496431580      -40.9921129651  TIP3      4224            0.0000000000
     34924      4416  TIP3      H2             21.2923922907      -23.8575078225      -41.9692513386  TIP3      4224            0.0000000000
     34925      4417  TIP3      OH2            19.9990854395      -17.8786705578      -36.2222620661  TIP3      4225            0.0000000000
     34926      4417  TIP3      H1             19.2906317662      -18.3708538087      -36.7034064392  TIP3      4225            0.0000000000
     34927      4417  TIP3      H2             20.2779350594      -18.5645485767      -35.5893850671  TIP3      4225            0.0000000000
     34928      4418  TIP3      OH2            20.8474584924      -19.7357667954      -34.3662892191  TIP3      4226            0.0000000000
     34929      4418  TIP3      H1             20.4647402302      -20.6179155843      -34.2155518259  TIP3      4226            0.0000000000
     34930      4418  TIP3      H2             21.0502142449      -19.4280896404      -33.4757925344  TIP3      4226            0.0000000000
     34931      4419  TIP3      OH2            36.2908529238      -21.6862595205      -29.1855069356  TIP3      4227            0.0000000000
     34932      4419  TIP3      H1             35.6323361351      -21.2584935334      -28.6229868984  TIP3      4227            0.0000000000
     34933      4419  TIP3      H2             35.7702796021      -22.0556195439      -29.9232766403  TIP3      4227            0.0000000000
     34934      4420  TIP3      OH2            35.3801504078      -28.6732807818      -35.8535309454  TIP3      4228            0.0000000000
     34935      4420  TIP3      H1             35.6408498314      -29.6023810489      -35.8263296459  TIP3      4228            0.0000000000
     34936      4420  TIP3      H2             35.4910648856      -28.4394537143      -34.9102900048  TIP3      4228            0.0000000000
     34937      4421  TIP3      OH2            20.8826694649      -26.6740909732      -31.8775801445  TIP3      4229            0.0000000000
     34938      4421  TIP3      H1             21.0673977192      -26.7513686463      -32.8391335302  TIP3      4229            0.0000000000
     34939      4421  TIP3      H2             21.7754296302      -26.8408095396      -31.5185896543  TIP3      4229            0.0000000000
     34940      4422  TIP3      OH2            35.7816896794      -32.7222687324      -42.3674415416  TIP3      4230            0.0000000000
     34941      4422  TIP3      H1             36.4806768854      -33.1216547015      -41.8227137427  TIP3      4230            0.0000000000
     34942      4422  TIP3      H2             34.9765557596      -33.2150624544      -42.1814838686  TIP3      4230            0.0000000000
     34943      4423  TIP3      OH2            35.5205042309      -31.2222511760      -37.6051377590  TIP3      4231            0.0000000000
     34944      4423  TIP3      H1             35.8161404447      -32.0730504687      -37.2302237286  TIP3      4231            0.0000000000
     34945      4423  TIP3      H2             36.3456977249      -30.8686754933      -37.9545432268  TIP3      4231            0.0000000000
     34946      4424  TIP3      OH2           -37.0632918884      -31.4363544662      -32.0712914113  TIP3      4232            0.0000000000
     34947      4424  TIP3      H1            -36.1610943569      -31.1030403190      -32.1696570476  TIP3      4232            0.0000000000
     34948      4424  TIP3      H2            -37.2446126519      -30.8250314061      -31.3409084658  TIP3      4232            0.0000000000
     34949      4425  TIP3      OH2            36.2582566593      -29.8574226033      -29.0191124284  TIP3      4233            0.0000000000
     34950      4425  TIP3      H1             35.3271593488      -29.5863108256      -28.9011599656  TIP3      4233            0.0000000000
     34951      4425  TIP3      H2             36.6300337376      -29.1420297956      -29.5679622561  TIP3      4233            0.0000000000
     34952      4426  TIP3      OH2            20.4884895908      -31.3756975018      -25.7720169887  TIP3      4234            0.0000000000
     34953      4426  TIP3      H1             21.4123806658      -31.5759210637      -25.5428982599  TIP3      4234            0.0000000000
     34954      4426  TIP3      H2             20.0339025443      -32.1633783353      -25.3981142766  TIP3      4234            0.0000000000
     34955      4427  TIP3      OH2            35.3216860427      -34.2288810131      -36.7600011507  TIP3      4235            0.0000000000
     34956      4427  TIP3      H1             36.2607255439      -34.3508314149      -36.5476883845  TIP3      4235            0.0000000000
     34957      4427  TIP3      H2             35.3523537643      -34.6019172942      -37.6706861670  TIP3      4235            0.0000000000
     34958      4428  TIP3      OH2            21.6734166005      -33.0338547785      -32.9090450497  TIP3      4236            0.0000000000
     34959      4428  TIP3      H1             22.1169604933      -33.8723041640      -32.6278495076  TIP3      4236            0.0000000000
     34960      4428  TIP3      H2             22.2374100776      -32.3775303706      -32.4835642328  TIP3      4236            0.0000000000
     34961      4429  TIP3      OH2            19.9873620663      -30.0835840942      -31.8314400704  TIP3      4237            0.0000000000
     34962      4429  TIP3      H1             20.5485915808      -30.3268522226      -32.5963695586  TIP3      4237            0.0000000000
     34963      4429  TIP3      H2             20.4435268382      -29.2716199264      -31.5653787456  TIP3      4237            0.0000000000
     34964      4430  TIP3      OH2            20.3490096528      -33.8587307463      -37.7501297397  TIP3      4238            0.0000000000
     34965      4430  TIP3      H1             19.4081517582      -33.6526631739      -37.8941022204  TIP3      4238            0.0000000000
     34966      4430  TIP3      H2             20.7673204198      -33.3577283160      -38.4767110724  TIP3      4238            0.0000000000
     34967      4431  TIP3      OH2            34.8980688417      -19.0396869787      -35.7236493782  TIP3      4239            0.0000000000
     34968      4431  TIP3      H1             35.5834990594      -19.3584378273      -36.3306662892  TIP3      4239            0.0000000000
     34969      4431  TIP3      H2             35.4307235895      -18.4627725185      -35.1475062878  TIP3      4239            0.0000000000
     34970      4432  TIP3      OH2            20.3165523383      -35.0936749514      -29.4121482973  TIP3      4240            0.0000000000
     34971      4432  TIP3      H1             19.5909431911      -35.3257936019      -28.8121626418  TIP3      4240            0.0000000000
     34972      4432  TIP3      H2             19.8487457137      -34.4991071000      -30.0383051066  TIP3      4240            0.0000000000
     34973      4433  TIP3      OH2            22.4949708408      -21.9971401686      -25.3011122204  TIP3      4241            0.0000000000
     34974      4433  TIP3      H1             21.6683225784      -21.7426064927      -25.7293806161  TIP3      4241            0.0000000000
     34975      4433  TIP3      H2             22.2778012545      -22.0154076796      -24.3623376465  TIP3      4241            0.0000000000
     34976      4434  TIP3      OH2            25.4162652495      -20.9758481738      -29.0751975679  TIP3      4242            0.0000000000
     34977      4434  TIP3      H1             25.0984278849      -20.0900652449      -29.2947971841  TIP3      4242            0.0000000000
     34978      4434  TIP3      H2             26.3626066594      -20.8702118846      -29.3088078531  TIP3      4242            0.0000000000
     34979      4435  TIP3      OH2            29.7651907013      -19.5408177817      -26.0936803104  TIP3      4243            0.0000000000
     34980      4435  TIP3      H1             29.9504353564      -19.9297632511      -25.2298571110  TIP3      4243            0.0000000000
     34981      4435  TIP3      H2             30.6553670151      -19.2432980617      -26.3744515323  TIP3      4243            0.0000000000
     34982      4436  TIP3      OH2            32.0598567056      -18.2996078022      -26.7569287790  TIP3      4244            0.0000000000
     34983      4436  TIP3      H1             32.8026562090      -18.8526677480      -27.0663994484  TIP3      4244            0.0000000000
     34984      4436  TIP3      H2             32.4930509315      -17.8190695395      -26.0453254648  TIP3      4244            0.0000000000
     34985      4437  TIP3      OH2            22.8539177204      -17.7031893241      -29.0193221022  TIP3      4245            0.0000000000
     34986      4437  TIP3      H1             22.1226053509      -17.2254765568      -29.4275932850  TIP3      4245            0.0000000000
     34987      4437  TIP3      H2             22.5531412167      -17.9272048600      -28.1274302396  TIP3      4245            0.0000000000
     34988      4438  TIP3      OH2            25.3297610805      -18.1393345404      -29.9595739616  TIP3      4246            0.0000000000
     34989      4438  TIP3      H1             24.4432078421      -17.9897823089      -29.5551748475  TIP3      4246            0.0000000000
     34990      4438  TIP3      H2             25.2691006875      -17.5493042230      -30.7322126092  TIP3      4246            0.0000000000
     34991      4439  TIP3      OH2            30.0081221507      -18.2408211420      -30.7784254053  TIP3      4247            0.0000000000
     34992      4439  TIP3      H1             29.5710074500      -17.6747569671      -31.4349499707  TIP3      4247            0.0000000000
     34993      4439  TIP3      H2             30.1724174449      -17.6009989673      -30.0503285843  TIP3      4247            0.0000000000
     34994      4440  TIP3      OH2            32.3248474801      -19.4137302837      -29.7580631463  TIP3      4248            0.0000000000
     34995      4440  TIP3      H1             31.4639594742      -19.1523964025      -30.1201999015  TIP3      4248            0.0000000000
     34996      4440  TIP3      H2             32.7832363864      -18.5590683725      -29.8486757121  TIP3      4248            0.0000000000
     34997      4441  TIP3      OH2            34.7778161406      -17.8451146599      -29.5324539867  TIP3      4249            0.0000000000
     34998      4441  TIP3      H1             34.7720962782      -16.8971557659      -29.7600049296  TIP3      4249            0.0000000000
     34999      4441  TIP3      H2             35.1166173006      -18.2187102071      -30.3661912988  TIP3      4249            0.0000000000
     35000      4442  TIP3      OH2            22.3132365188      -19.0728603828      -32.0798079293  TIP3      4250            0.0000000000
     35001      4442  TIP3      H1             22.2408497027      -19.5307250670      -31.2169296191  TIP3      4250            0.0000000000
     35002      4442  TIP3      H2             23.1297330870      -19.4424875992      -32.4739498183  TIP3      4250            0.0000000000
     35003      4443  TIP3      OH2            24.3954520956      -20.3611180199      -33.4316362941  TIP3      4251            0.0000000000
     35004      4443  TIP3      H1             24.2294690677      -21.2951085203      -33.2040603025  TIP3      4251            0.0000000000
     35005      4443  TIP3      H2             25.2520074052      -20.2109115781      -32.9760065210  TIP3      4251            0.0000000000
     35006      4444  TIP3      OH2            26.9746139119      -19.8731033864      -32.5572293497  TIP3      4252            0.0000000000
     35007      4444  TIP3      H1             27.1560612767      -20.7930933698      -32.8222027144  TIP3      4252            0.0000000000
     35008      4444  TIP3      H2             27.0404826572      -19.9327128795      -31.5931939292  TIP3      4252            0.0000000000
     35009      4445  TIP3      OH2            30.3328067455      -34.1659145863      -33.4272019417  TIP3      4253            0.0000000000
     35010      4445  TIP3      H1             29.7471912746      -34.8851588793      -33.1529256726  TIP3      4253            0.0000000000
     35011      4445  TIP3      H2             31.0139289712      -34.6590105099      -33.9338928455  TIP3      4253            0.0000000000
     35012      4446  TIP3      OH2            35.5947444922      -36.1354317437      -33.2863277561  TIP3      4254            0.0000000000
     35013      4446  TIP3      H1             36.2067239958      -35.5957950160      -33.7870097915  TIP3      4254            0.0000000000
     35014      4446  TIP3      H2             34.7283355600      -35.8087238730      -33.5285007724  TIP3      4254            0.0000000000
     35015      4447  TIP3      OH2            22.7924704731      -35.5724157606      -35.5483791815  TIP3      4255            0.0000000000
     35016      4447  TIP3      H1             22.0234094332      -35.8092121898      -36.0872868807  TIP3      4255            0.0000000000
     35017      4447  TIP3      H2             23.2800455840      -36.4166675935      -35.5340355298  TIP3      4255            0.0000000000
     35018      4448  TIP3      OH2            21.6181803292      -35.8391968197      -39.8062876754  TIP3      4256            0.0000000000
     35019      4448  TIP3      H1             22.0557249666      -35.2035690380      -40.3969608239  TIP3      4256            0.0000000000
     35020      4448  TIP3      H2             20.9865093549      -35.2856881776      -39.3329044567  TIP3      4256            0.0000000000
     35021      4449  TIP3      OH2            27.3593704519      -35.7323039832      -35.7965701255  TIP3      4257            0.0000000000
     35022      4449  TIP3      H1             28.2175576155      -35.2790570789      -35.8280122040  TIP3      4257            0.0000000000
     35023      4449  TIP3      H2             27.2549073165      -35.8940212798      -34.8535276635  TIP3      4257            0.0000000000
     35024      4450  TIP3      OH2            32.7085419810      -35.3102772216      -34.0094371893  TIP3      4258            0.0000000000
     35025      4450  TIP3      H1             32.9061121270      -35.3313516460      -34.9483933336  TIP3      4258            0.0000000000
     35026      4450  TIP3      H2             32.6469675853      -36.2932271501      -33.8941014270  TIP3      4258            0.0000000000
     35027      4451  TIP3      OH2            34.2531710886      -35.6688065449      -38.6121985933  TIP3      4259            0.0000000000
     35028      4451  TIP3      H1             33.5171669303      -35.0383328033      -38.6395694300  TIP3      4259            0.0000000000
     35029      4451  TIP3      H2             33.8350895151      -36.4895141172      -38.3183473747  TIP3      4259            0.0000000000
     35030      4452  TIP3      OH2            21.5790476882      -19.8614205966      -38.8809976042  TIP3      4260            0.0000000000
     35031      4452  TIP3      H1             20.8317476344      -19.9045690149      -39.5072263233  TIP3      4260            0.0000000000
     35032      4452  TIP3      H2             21.5127767238      -18.9310305609      -38.6495795484  TIP3      4260            0.0000000000
     35033      4453  TIP3      OH2            23.4143866865      -34.0384089641      -41.3155996792  TIP3      4261            0.0000000000
     35034      4453  TIP3      H1             23.9690159986      -34.5469552953      -41.9011918772  TIP3      4261            0.0000000000
     35035      4453  TIP3      H2             24.0640286064      -33.6012716256      -40.7342365128  TIP3      4261            0.0000000000
     35036      4454  TIP3      OH2            28.3857917679      -33.6651676426      -38.8941412759  TIP3      4262            0.0000000000
     35037      4454  TIP3      H1             28.7432802025      -34.2193150340      -38.1766857948  TIP3      4262            0.0000000000
     35038      4454  TIP3      H2             28.5174824056      -32.7912918077      -38.4535429929  TIP3      4262            0.0000000000
     35039      4455  TIP3      OH2            30.3084688540      -18.3167194730      -40.4840450876  TIP3      4263            0.0000000000
     35040      4455  TIP3      H1             31.2886124768      -18.2897642582      -40.5938524181  TIP3      4263            0.0000000000
     35041      4455  TIP3      H2             30.2317818627      -19.0488744853      -41.1359163965  TIP3      4263            0.0000000000
     35042      4456  TIP3      OH2            22.6125256975      -34.7488359205      -26.0843347807  TIP3      4264            0.0000000000
     35043      4456  TIP3      H1             22.2595888042      -35.3704132895      -25.4449729302  TIP3      4264            0.0000000000
     35044      4456  TIP3      H2             23.5605782939      -34.8643186733      -25.7762634428  TIP3      4264            0.0000000000
     35045      4457  TIP3      OH2            24.4449590868      -35.5938815929      -24.6935934619  TIP3      4265            0.0000000000
     35046      4457  TIP3      H1             25.4124853177      -35.7079065030      -24.7223752892  TIP3      4265            0.0000000000
     35047      4457  TIP3      H2             24.3308471415      -36.3323560337      -24.0667950148  TIP3      4265            0.0000000000
     35048      4458  TIP3      OH2            23.4437541548      -18.8120941377      -41.8659747405  TIP3      4266            0.0000000000
     35049      4458  TIP3      H1             23.0164764139      -18.6506492783      -41.0083043716  TIP3      4266            0.0000000000
     35050      4458  TIP3      H2             24.0395316424      -19.5302472659      -41.6894956273  TIP3      4266            0.0000000000
     35051      4459  TIP3      OH2            33.1153428660       37.0664620210      -24.4357416075  TIP3      4267            0.0000000000
     35052      4459  TIP3      H1             33.0900172091       36.4924690020      -23.6284118350  TIP3      4267            0.0000000000
     35053      4459  TIP3      H2             33.9756746958       36.7603032172      -24.7232837624  TIP3      4267            0.0000000000
     35054      4460  TIP3      OH2            36.1148225837      -20.4395574814      -25.5649912381  TIP3      4268            0.0000000000
     35055      4460  TIP3      H1             35.4493007341      -20.5208148243      -26.2827085895  TIP3      4268            0.0000000000
     35056      4460  TIP3      H2             36.1423655149      -19.4538473019      -25.4967695916  TIP3      4268            0.0000000000
     35057      4461  TIP3      OH2           -24.6570304128       -7.6019168280      -35.7068434822  TIP3      4269            0.0000000000
     35058      4461  TIP3      H1            -24.6635562186       -6.6237242542      -35.7527992000  TIP3      4269            0.0000000000
     35059      4461  TIP3      H2            -25.3798905108       -7.8400941457      -36.3112857197  TIP3      4269            0.0000000000
     35060      4462  TIP3      OH2           -25.8021863781       -8.3482930138      -32.2092264463  TIP3      4270            0.0000000000
     35061      4462  TIP3      H1            -25.8145183451       -9.0008845586      -31.4958102607  TIP3      4270            0.0000000000
     35062      4462  TIP3      H2            -26.1400657417       -8.8504049387      -32.9671257400  TIP3      4270            0.0000000000
     35063      4463  TIP3      OH2           -33.4039135386       -8.6834742323      -30.6875212706  TIP3      4271            0.0000000000
     35064      4463  TIP3      H1            -33.3372832863       -9.3570847956      -29.9763949200  TIP3      4271            0.0000000000
     35065      4463  TIP3      H2            -32.6905310429       -8.0885519661      -30.4197705464  TIP3      4271            0.0000000000
     35066      4464  TIP3      OH2           -22.1063167309       -5.4000753003      -33.9293411454  TIP3      4272            0.0000000000
     35067      4464  TIP3      H1            -22.5269536488       -6.1155322273      -33.4420398621  TIP3      4272            0.0000000000
     35068      4464  TIP3      H2            -22.0882704687       -4.6906517415      -33.2603130928  TIP3      4272            0.0000000000
     35069      4465  TIP3      OH2           -32.5157612228       -4.2458383831      -32.1346070012  TIP3      4273            0.0000000000
     35070      4465  TIP3      H1            -32.8368461297       -5.0979738404      -32.4837231607  TIP3      4273            0.0000000000
     35071      4465  TIP3      H2            -31.5579034210       -4.4200406078      -32.1088653656  TIP3      4273            0.0000000000
     35072      4466  TIP3      OH2           -35.6251944997      -10.6675896392      -37.0638888512  TIP3      4274            0.0000000000
     35073      4466  TIP3      H1            -36.0743165770       -9.8604320551      -36.7237218341  TIP3      4274            0.0000000000
     35074      4466  TIP3      H2            -36.3967508850      -11.2157721143      -37.0979027038  TIP3      4274            0.0000000000
     35075      4467  TIP3      OH2           -35.2057271886       -8.5081423146      -34.5726262512  TIP3      4275            0.0000000000
     35076      4467  TIP3      H1            -34.9100543134       -9.2633401813      -34.0414085004  TIP3      4275            0.0000000000
     35077      4467  TIP3      H2            -34.4615348662       -8.3404653877      -35.1676909109  TIP3      4275            0.0000000000
     35078      4468  TIP3      OH2           -25.0039371758       -0.2523175567      -33.6971964842  TIP3      4276            0.0000000000
     35079      4468  TIP3      H1            -24.3446071275       -0.9374119665      -33.9744820233  TIP3      4276            0.0000000000
     35080      4468  TIP3      H2            -25.2018770291       -0.5716458849      -32.8167555984  TIP3      4276            0.0000000000
     35081      4469  TIP3      OH2           -27.4228482527       -5.9432769940      -31.7474009618  TIP3      4277            0.0000000000
     35082      4469  TIP3      H1            -27.0842852795       -6.5774744269      -32.3988667357  TIP3      4277            0.0000000000
     35083      4469  TIP3      H2            -26.6185904218       -5.7918211360      -31.2222938201  TIP3      4277            0.0000000000
     35084      4470  TIP3      OH2           -18.8186373455      -14.2919909252      -31.0085744156  TIP3      4278            0.0000000000
     35085      4470  TIP3      H1            -18.6501193094      -13.6987522281      -30.2453811483  TIP3      4278            0.0000000000
     35086      4470  TIP3      H2            -18.2622760570      -13.8649803837      -31.6755008125  TIP3      4278            0.0000000000
     35087      4471  TIP3      OH2           -24.2622434039      -11.4841041534      -31.4154504235  TIP3      4279            0.0000000000
     35088      4471  TIP3      H1            -24.0888790568      -12.4394542259      -31.4333895122  TIP3      4279            0.0000000000
     35089      4471  TIP3      H2            -24.3596632029      -11.3337024597      -32.3768557212  TIP3      4279            0.0000000000
     35090      4472  TIP3      OH2           -31.1319292029      -13.3951279479      -34.2003189955  TIP3      4280            0.0000000000
     35091      4472  TIP3      H1            -31.0289229751      -12.5606718398      -34.6931465626  TIP3      4280            0.0000000000
     35092      4472  TIP3      H2            -31.5260908345      -13.9670678772      -34.8936954977  TIP3      4280            0.0000000000
     35093      4473  TIP3      OH2           -23.3975729587      -13.3120531024      -35.8429699178  TIP3      4281            0.0000000000
     35094      4473  TIP3      H1            -22.7437200750      -13.6218370631      -35.1728048857  TIP3      4281            0.0000000000
     35095      4473  TIP3      H2            -22.8368151171      -12.7405702728      -36.3935375329  TIP3      4281            0.0000000000
     35096      4474  TIP3      OH2           -34.5438024619      -11.0586168024      -33.5257682245  TIP3      4282            0.0000000000
     35097      4474  TIP3      H1            -33.8218741207      -11.5373955556      -33.0630465797  TIP3      4282            0.0000000000
     35098      4474  TIP3      H2            -34.3807346970      -11.3343179775      -34.4335021351  TIP3      4282            0.0000000000
     35099      4475  TIP3      OH2           -29.3584772194       -9.4272392671      -34.1666439530  TIP3      4283            0.0000000000
     35100      4475  TIP3      H1            -28.6912471839      -10.0067637714      -33.7590772584  TIP3      4283            0.0000000000
     35101      4475  TIP3      H2            -29.8774424097      -10.0882898856      -34.6638960361  TIP3      4283            0.0000000000
     35102      4476  TIP3      OH2           -18.3705666329      -12.8759774612      -28.7433830152  TIP3      4284            0.0000000000
     35103      4476  TIP3      H1            -19.0014477438      -12.1273607692      -28.8379050952  TIP3      4284            0.0000000000
     35104      4476  TIP3      H2            -18.3360280770      -12.9689407475      -27.7814826750  TIP3      4284            0.0000000000
     35105      4477  TIP3      OH2           -32.2198956190      -14.5026557530      -30.1952792356  TIP3      4285            0.0000000000
     35106      4477  TIP3      H1            -32.5104451290      -13.9170105893      -30.9194466261  TIP3      4285            0.0000000000
     35107      4477  TIP3      H2            -32.8793222809      -14.2661698286      -29.4966021622  TIP3      4285            0.0000000000
     35108      4478  TIP3      OH2           -24.9444736489       -5.0062203873      -36.6208486018  TIP3      4286            0.0000000000
     35109      4478  TIP3      H1            -25.2120397457       -5.2849511380      -37.5097949488  TIP3      4286            0.0000000000
     35110      4478  TIP3      H2            -25.2522466151       -4.0758124257      -36.5758544003  TIP3      4286            0.0000000000
     35111      4479  TIP3      OH2           -29.7000424710       -6.8429299998      -29.9458601075  TIP3      4287            0.0000000000
     35112      4479  TIP3      H1            -30.4176475650       -6.2122808044      -29.7106460080  TIP3      4287            0.0000000000
     35113      4479  TIP3      H2            -28.9997679168       -6.2370478675      -30.2209087658  TIP3      4287            0.0000000000
     35114      4480  TIP3      OH2           -21.5882175278      -13.9511919917      -33.8466679308  TIP3      4288            0.0000000000
     35115      4480  TIP3      H1            -21.8110380021      -14.7288031084      -33.3208059863  TIP3      4288            0.0000000000
     35116      4480  TIP3      H2            -20.9191485443      -13.5234071774      -33.2891326747  TIP3      4288            0.0000000000
     35117      4481  TIP3      OH2           -32.7062763762      -12.6314539373      -32.1728305416  TIP3      4289            0.0000000000
     35118      4481  TIP3      H1            -32.0680196799      -11.9662391626      -31.8108422592  TIP3      4289            0.0000000000
     35119      4481  TIP3      H2            -32.1378245349      -13.0511850218      -32.8695915328  TIP3      4289            0.0000000000
     35120      4482  TIP3      OH2           -31.2843533540       -4.8603453754      -29.1112670844  TIP3      4290            0.0000000000
     35121      4482  TIP3      H1            -31.3233745552       -3.9425187887      -29.4439041154  TIP3      4290            0.0000000000
     35122      4482  TIP3      H2            -32.1696411610       -4.9357049650      -28.6821358170  TIP3      4290            0.0000000000
     35123      4483  TIP3      OH2           -35.2310248392       -5.1926533021      -38.3433593497  TIP3      4291            0.0000000000
     35124      4483  TIP3      H1            -35.4084210220       -4.8820215246      -39.2500620443  TIP3      4291            0.0000000000
     35125      4483  TIP3      H2            -35.1125816162       -4.3773298129      -37.8174458442  TIP3      4291            0.0000000000
     35126      4484  TIP3      OH2           -21.5805148625       -3.5642700756      -31.5595309802  TIP3      4292            0.0000000000
     35127      4484  TIP3      H1            -22.5480173200       -3.4553799378      -31.4351113183  TIP3      4292            0.0000000000
     35128      4484  TIP3      H2            -21.3108598185       -2.6465686961      -31.7547028188  TIP3      4292            0.0000000000
     35129      4485  TIP3      OH2           -21.2683184071      -15.2485886628      -30.1438219785  TIP3      4293            0.0000000000
     35130      4485  TIP3      H1            -22.0184901329      -14.6491155707      -30.2497589987  TIP3      4293            0.0000000000
     35131      4485  TIP3      H2            -20.5635616021      -14.8503109082      -30.6931035893  TIP3      4293            0.0000000000
     35132      4486  TIP3      OH2           -28.2779558291      -17.1653563519      -32.6845896835  TIP3      4294            0.0000000000
     35133      4486  TIP3      H1            -28.3993248295      -18.1248932787      -32.8240720198  TIP3      4294            0.0000000000
     35134      4486  TIP3      H2            -29.1685785562      -16.8731065918      -32.4118832337  TIP3      4294            0.0000000000
     35135      4487  TIP3      OH2           -23.3207044783       -1.7794346543      -34.9654774352  TIP3      4295            0.0000000000
     35136      4487  TIP3      H1            -22.8928983284       -2.4975344410      -35.4752797587  TIP3      4295            0.0000000000
     35137      4487  TIP3      H2            -22.8980226273       -0.9873771763      -35.3585171142  TIP3      4295            0.0000000000
     35138      4488  TIP3      OH2           -22.1140885508       -3.8550511121      -36.4572380416  TIP3      4296            0.0000000000
     35139      4488  TIP3      H1            -22.4073504137       -4.5485292675      -37.0734164181  TIP3      4296            0.0000000000
     35140      4488  TIP3      H2            -22.0814931274       -4.3457898011      -35.6153235092  TIP3      4296            0.0000000000
     35141      4489  TIP3      OH2           -20.4822053545       -5.2566242341      -27.9637636205  TIP3      4297            0.0000000000
     35142      4489  TIP3      H1            -20.3448707906       -5.9138462800      -28.6800564727  TIP3      4297            0.0000000000
     35143      4489  TIP3      H2            -20.2820542787       -4.4124592408      -28.3993153035  TIP3      4297            0.0000000000
     35144      4490  TIP3      OH2           -26.0055364374       -8.3596596568      -38.2051249369  TIP3      4298            0.0000000000
     35145      4490  TIP3      H1            -26.7000586353       -7.7874533096      -38.5912407744  TIP3      4298            0.0000000000
     35146      4490  TIP3      H2            -25.2935131143       -8.2770037063      -38.8669537842  TIP3      4298            0.0000000000
     35147      4491  TIP3      OH2           -25.9590862867       -9.8375207131      -41.1155586133  TIP3      4299            0.0000000000
     35148      4491  TIP3      H1            -25.2218575424       -9.8351408070      -40.4843581539  TIP3      4299            0.0000000000
     35149      4491  TIP3      H2            -25.6315933062      -10.4742955124      -41.7577149337  TIP3      4299            0.0000000000
     35150      4492  TIP3      OH2           -18.6071304967       -8.9487100778      -29.9096718751  TIP3      4300            0.0000000000
     35151      4492  TIP3      H1            -19.2685097251       -8.2296381682      -29.8680711190  TIP3      4300            0.0000000000
     35152      4492  TIP3      H2            -18.1193864383       -8.7178175322      -30.7206094922  TIP3      4300            0.0000000000
     35153      4493  TIP3      OH2           -22.5601047199       -8.1500810767      -37.2541561895  TIP3      4301            0.0000000000
     35154      4493  TIP3      H1            -23.3046908941       -7.9110716360      -36.6526767414  TIP3      4301            0.0000000000
     35155      4493  TIP3      H2            -22.0853326418       -8.8324065741      -36.7454869544  TIP3      4301            0.0000000000
     35156      4494  TIP3      OH2           -22.6313258572       -9.9948248238      -28.1516663133  TIP3      4302            0.0000000000
     35157      4494  TIP3      H1            -22.6104652405       -9.1864099099      -27.5998510759  TIP3      4302            0.0000000000
     35158      4494  TIP3      H2            -23.2567355707       -9.6863481771      -28.8386236832  TIP3      4302            0.0000000000
     35159      4495  TIP3      OH2           -30.9202645797       -7.4845327737      -35.3594989911  TIP3      4303            0.0000000000
     35160      4495  TIP3      H1            -31.2745099085       -7.8901464556      -36.1859765921  TIP3      4303            0.0000000000
     35161      4495  TIP3      H2            -30.3215792471       -8.1897632677      -35.0217618822  TIP3      4303            0.0000000000
     35162      4496  TIP3      OH2           -29.6186368077       -4.1049307142      -32.6767229599  TIP3      4304            0.0000000000
     35163      4496  TIP3      H1            -29.6286139470       -4.6412167543      -33.4794989419  TIP3      4304            0.0000000000
     35164      4496  TIP3      H2            -28.8375243279       -4.4669270021      -32.2170890529  TIP3      4304            0.0000000000
     35165      4497  TIP3      OH2           -30.5871580466       -8.7457616097      -31.7107917420  TIP3      4305            0.0000000000
     35166      4497  TIP3      H1            -30.0367633552       -8.6363631397      -32.5067226077  TIP3      4305            0.0000000000
     35167      4497  TIP3      H2            -30.2252008439       -8.0821005869      -31.0811839190  TIP3      4305            0.0000000000
     35168      4498  TIP3      OH2           -24.2002154589       -3.1766207099      -30.9799669563  TIP3      4306            0.0000000000
     35169      4498  TIP3      H1            -24.4951733571       -2.5406203140      -30.3255007705  TIP3      4306            0.0000000000
     35170      4498  TIP3      H2            -24.4568516274       -4.0383792876      -30.5699524706  TIP3      4306            0.0000000000
     35171      4499  TIP3      OH2           -29.6657542068       -4.3384087163      -26.9571567235  TIP3      4307            0.0000000000
     35172      4499  TIP3      H1            -30.0503830279       -3.5404420890      -26.5389427158  TIP3      4307            0.0000000000
     35173      4499  TIP3      H2            -30.3091558455       -4.5134917952      -27.6886363995  TIP3      4307            0.0000000000
     35174      4500  TIP3      OH2           -23.6754998640       -8.9800454079      -39.5946600741  TIP3      4308            0.0000000000
     35175      4500  TIP3      H1            -23.1286704200       -8.7787170114      -38.7967099151  TIP3      4308            0.0000000000
     35176      4500  TIP3      H2            -23.2683616084       -8.4380446495      -40.2986642173  TIP3      4308            0.0000000000
     35177      4501  TIP3      OH2           -32.7233797534       -8.1459017322      -27.8152015664  TIP3      4309            0.0000000000
     35178      4501  TIP3      H1            -32.6846082301       -7.4661142140      -27.1233934774  TIP3      4309            0.0000000000
     35179      4501  TIP3      H2            -33.6596120561       -8.0653401273      -28.0631837207  TIP3      4309            0.0000000000
     35180      4502  TIP3      OH2           -25.9660821124       -2.2470685472      -36.1190446817  TIP3      4310            0.0000000000
     35181      4502  TIP3      H1            -25.5255859095       -1.9250859551      -35.3258395583  TIP3      4310            0.0000000000
     35182      4502  TIP3      H2            -26.5123553959       -1.4984279171      -36.3806645812  TIP3      4310            0.0000000000
     35183      4503  TIP3      OH2           -31.4080177805       -2.3063965469      -26.2566049932  TIP3      4311            0.0000000000
     35184      4503  TIP3      H1            -31.4603995251       -2.3932014265      -27.2254065802  TIP3      4311            0.0000000000
     35185      4503  TIP3      H2            -32.3436619812       -2.4302844973      -26.0051264408  TIP3      4311            0.0000000000
     35186      4504  TIP3      OH2           -19.9681896341      -17.2317409705      -39.7243008005  TIP3      4312            0.0000000000
     35187      4504  TIP3      H1            -20.9108316445      -17.1097603549      -39.4627302864  TIP3      4312            0.0000000000
     35188      4504  TIP3      H2            -19.7435474912      -16.3741245775      -40.1217621999  TIP3      4312            0.0000000000
     35189      4505  TIP3      OH2           -31.9443183201       -8.4711327507      -37.7570032176  TIP3      4313            0.0000000000
     35190      4505  TIP3      H1            -32.2397326448       -7.6973243373      -38.2732403972  TIP3      4313            0.0000000000
     35191      4505  TIP3      H2            -32.6108942134       -9.1321708631      -37.9654732119  TIP3      4313            0.0000000000
     35192      4506  TIP3      OH2           -18.8560322878       -2.8963309335      -41.3524989899  TIP3      4314            0.0000000000
     35193      4506  TIP3      H1            -18.7246675620       -1.9362908649      -41.2179193186  TIP3      4314            0.0000000000
     35194      4506  TIP3      H2            -17.9185618586       -3.1606649885      -41.3966034547  TIP3      4314            0.0000000000
     35195      4507  TIP3      OH2           -35.2995408327       -6.1743550920      -29.1060176719  TIP3      4315            0.0000000000
     35196      4507  TIP3      H1            -36.0793742926       -6.0555980814      -29.6897743886  TIP3      4315            0.0000000000
     35197      4507  TIP3      H2            -35.6779144389       -6.9573379580      -28.6408730169  TIP3      4315            0.0000000000
     35198      4508  TIP3      OH2           -35.8257378643       -3.0942485168      -32.3359548169  TIP3      4316            0.0000000000
     35199      4508  TIP3      H1            -34.9952032409       -3.4918999056      -32.0600960064  TIP3      4316            0.0000000000
     35200      4508  TIP3      H2            -36.0953065877       -2.6130777635      -31.5393521808  TIP3      4316            0.0000000000
     35201      4509  TIP3      OH2           -17.8766286399       -2.6024749559      -26.4136545366  TIP3      4317            0.0000000000
     35202      4509  TIP3      H1            -17.9981477320       -3.5619646396      -26.3893741786  TIP3      4317            0.0000000000
     35203      4509  TIP3      H2            -18.7276542102       -2.3422987230      -25.9802426428  TIP3      4317            0.0000000000
     35204      4510  TIP3      OH2           -26.9004120474       -3.0840201274      -27.4848083576  TIP3      4318            0.0000000000
     35205      4510  TIP3      H1            -26.8738790943       -2.2254108626      -27.0042986232  TIP3      4318            0.0000000000
     35206      4510  TIP3      H2            -27.8014324957       -3.4127488451      -27.2952807781  TIP3      4318            0.0000000000
     35207      4511  TIP3      OH2           -26.5412955789        0.6829574437      -37.7203490355  TIP3      4319            0.0000000000
     35208      4511  TIP3      H1            -26.5450067721        0.6098033596      -38.6918820227  TIP3      4319            0.0000000000
     35209      4511  TIP3      H2            -26.4296111481        1.6415674811      -37.5708836141  TIP3      4319            0.0000000000
     35210      4512  TIP3      OH2           -32.8504327403       -0.4217443141      -35.8995872465  TIP3      4320            0.0000000000
     35211      4512  TIP3      H1            -32.7157319140       -0.8625983080      -35.0285604194  TIP3      4320            0.0000000000
     35212      4512  TIP3      H2            -33.6751574514       -0.8770883781      -36.1532631386  TIP3      4320            0.0000000000
     35213      4513  TIP3      OH2           -23.4605602878       -0.1209393202      -40.7564726583  TIP3      4321            0.0000000000
     35214      4513  TIP3      H1            -22.9870969780       -0.8780237660      -41.1703039005  TIP3      4321            0.0000000000
     35215      4513  TIP3      H2            -23.3838644212       -0.3646997036      -39.8149745901  TIP3      4321            0.0000000000
     35216      4514  TIP3      OH2           -23.7415841016       -0.1741734454      -37.9577234723  TIP3      4322            0.0000000000
     35217      4514  TIP3      H1            -24.6964625064       -0.1106975080      -37.7706463095  TIP3      4322            0.0000000000
     35218      4514  TIP3      H2            -23.4824256501       -0.9146728874      -37.3877921224  TIP3      4322            0.0000000000
     35219      4515  TIP3      OH2           -20.7355640475      -11.1699462168      -25.9490416826  TIP3      4323            0.0000000000
     35220      4515  TIP3      H1            -21.1927346577      -10.6634404125      -26.6345700816  TIP3      4323            0.0000000000
     35221      4515  TIP3      H2            -20.7196064390      -12.0868606605      -26.2366563236  TIP3      4323            0.0000000000
     35222      4516  TIP3      OH2           -33.5907762242       -4.6434765091      -27.8495965882  TIP3      4324            0.0000000000
     35223      4516  TIP3      H1            -33.3993559550       -5.0995879349      -27.0105881821  TIP3      4324            0.0000000000
     35224      4516  TIP3      H2            -34.4175006004       -5.1038872558      -28.1327317831  TIP3      4324            0.0000000000
     35225      4517  TIP3      OH2           -30.9015064593      -16.2537071268      -31.9592104876  TIP3      4325            0.0000000000
     35226      4517  TIP3      H1            -31.8093154118      -16.3702563381      -32.3193785893  TIP3      4325            0.0000000000
     35227      4517  TIP3      H2            -31.0375843110      -15.4304619771      -31.4602189895  TIP3      4325            0.0000000000
     35228      4518  TIP3      OH2           -23.0637316617      -12.7870359087      -27.7217057836  TIP3      4326            0.0000000000
     35229      4518  TIP3      H1            -23.4948345493      -12.9290804566      -26.8741040194  TIP3      4326            0.0000000000
     35230      4518  TIP3      H2            -23.1457387436      -11.8322625671      -27.8995290538  TIP3      4326            0.0000000000
     35231      4519  TIP3      OH2           -22.1571288354       -7.8737007904      -41.7799537723  TIP3      4327            0.0000000000
     35232      4519  TIP3      H1            -22.1483068057       -8.0623492964      -42.7359131572  TIP3      4327            0.0000000000
     35233      4519  TIP3      H2            -21.2861705925       -7.4537147695      -41.6727890631  TIP3      4327            0.0000000000
     35234      4520  TIP3      OH2           -26.6256429953      -14.0171794822      -41.2479489931  TIP3      4328            0.0000000000
     35235      4520  TIP3      H1            -26.9432082802      -14.0649576751      -40.3278689101  TIP3      4328            0.0000000000
     35236      4520  TIP3      H2            -26.9033356324      -14.8955346390      -41.5375996432  TIP3      4328            0.0000000000
     35237      4521  TIP3      OH2           -30.8541795001      -11.2868931315      -30.7520246958  TIP3      4329            0.0000000000
     35238      4521  TIP3      H1            -31.5207449301      -11.3019850090      -30.0402733360  TIP3      4329            0.0000000000
     35239      4521  TIP3      H2            -30.8543116857      -10.3576818042      -31.0694459190  TIP3      4329            0.0000000000
     35240      4522  TIP3      OH2           -30.8367427273      -11.1498678868      -35.8426234801  TIP3      4330            0.0000000000
     35241      4522  TIP3      H1            -31.7715291650      -11.4157983769      -35.9791009642  TIP3      4330            0.0000000000
     35242      4522  TIP3      H2            -30.4559211223      -11.4614904055      -36.6863848697  TIP3      4330            0.0000000000
     35243      4523  TIP3      OH2           -25.3291886113      -10.6736000422      -37.0910490585  TIP3      4331            0.0000000000
     35244      4523  TIP3      H1            -25.7374616168       -9.8377440111      -37.4118187603  TIP3      4331            0.0000000000
     35245      4523  TIP3      H2            -24.6373837653      -10.8229163669      -37.7625319566  TIP3      4331            0.0000000000
     35246      4524  TIP3      OH2           -26.2721265112      -10.4920993597      -25.5880011134  TIP3      4332            0.0000000000
     35247      4524  TIP3      H1            -26.8192525485      -11.2239499252      -25.2770050896  TIP3      4332            0.0000000000
     35248      4524  TIP3      H2            -25.4251843528      -10.5995145439      -25.1184099500  TIP3      4332            0.0000000000
     35249      4525  TIP3      OH2           -24.3003230617      -11.1799453010      -34.2211887567  TIP3      4333            0.0000000000
     35250      4525  TIP3      H1            -24.5756804275      -10.6154259682      -34.9643315638  TIP3      4333            0.0000000000
     35251      4525  TIP3      H2            -24.1988937618      -12.0277136813      -34.6940649576  TIP3      4333            0.0000000000
     35252      4526  TIP3      OH2           -33.1599117460      -11.0435529613      -29.0011404955  TIP3      4334            0.0000000000
     35253      4526  TIP3      H1            -33.1518266836      -10.6305297225      -28.1238172363  TIP3      4334            0.0000000000
     35254      4526  TIP3      H2            -33.6648319573      -11.8504243812      -28.8289240477  TIP3      4334            0.0000000000
     35255      4527  TIP3      OH2           -29.6463191719      -13.4177787880      -41.8578211779  TIP3      4335            0.0000000000
     35256      4527  TIP3      H1            -30.1847035001      -14.0417640082      -41.3287113142  TIP3      4335            0.0000000000
     35257      4527  TIP3      H2            -30.2658858551      -13.0555584579      -42.4886788363  TIP3      4335            0.0000000000
     35258      4528  TIP3      OH2           -36.1963674280      -13.6127922418      -35.2388680289  TIP3      4336            0.0000000000
     35259      4528  TIP3      H1            -35.8439967154      -13.9374691289      -34.3781205640  TIP3      4336            0.0000000000
     35260      4528  TIP3      H2            -36.0046769959      -14.3637156894      -35.8001729154  TIP3      4336            0.0000000000
     35261      4529  TIP3      OH2           -35.2352915863      -13.0723198637      -39.6907435425  TIP3      4337            0.0000000000
     35262      4529  TIP3      H1            -34.7117356171      -12.5283293936      -40.3137155985  TIP3      4337            0.0000000000
     35263      4529  TIP3      H2            -35.9601129767      -12.5119998686      -39.4478494684  TIP3      4337            0.0000000000
     35264      4530  TIP3      OH2           -25.0945705065       -9.5942936714      -29.6349823212  TIP3      4338            0.0000000000
     35265      4530  TIP3      H1            -24.7298740887      -10.2622367612      -30.2523396534  TIP3      4338            0.0000000000
     35266      4530  TIP3      H2            -25.5728378905      -10.1453532708      -28.9886336836  TIP3      4338            0.0000000000
     35267      4531  TIP3      OH2           -28.3042290732      -13.5755419690      -34.8216938240  TIP3      4339            0.0000000000
     35268      4531  TIP3      H1            -29.2393131353      -13.6074248014      -34.5326541938  TIP3      4339            0.0000000000
     35269      4531  TIP3      H2            -27.8168282811      -13.7948079550      -34.0106186868  TIP3      4339            0.0000000000
     35270      4532  TIP3      OH2           -33.4665695022      -12.0632949035      -35.9699026549  TIP3      4340            0.0000000000
     35271      4532  TIP3      H1            -34.3418674771      -11.9009561873      -36.3620219902  TIP3      4340            0.0000000000
     35272      4532  TIP3      H2            -33.2232042437      -12.9144768594      -36.3743436112  TIP3      4340            0.0000000000
     35273      4533  TIP3      OH2           -29.8527170566      -12.0009414727      -38.3295392857  TIP3      4341            0.0000000000
     35274      4533  TIP3      H1            -28.8931931132      -11.8984786139      -38.1662043965  TIP3      4341            0.0000000000
     35275      4533  TIP3      H2            -30.0914164933      -11.3462817722      -39.0094183154  TIP3      4341            0.0000000000
     35276      4534  TIP3      OH2           -23.8914744066      -14.3913726948      -31.5803308451  TIP3      4342            0.0000000000
     35277      4534  TIP3      H1            -24.5762388451      -14.3059359131      -30.8809567775  TIP3      4342            0.0000000000
     35278      4534  TIP3      H2            -24.4037568986      -14.6448492708      -32.3640795346  TIP3      4342            0.0000000000
     35279      4535  TIP3      OH2           -31.1350029658      -10.8497936858      -40.7442491025  TIP3      4343            0.0000000000
     35280      4535  TIP3      H1            -31.6912158542      -11.1874809411      -41.4635115469  TIP3      4343            0.0000000000
     35281      4535  TIP3      H2            -30.3159329347      -10.6267766398      -41.2089037017  TIP3      4343            0.0000000000
     35282      4536  TIP3      OH2           -20.6890135905        1.2666217361      -25.2527497472  TIP3      4344            0.0000000000
     35283      4536  TIP3      H1            -20.3961886848        1.6448471099      -26.1053024908  TIP3      4344            0.0000000000
     35284      4536  TIP3      H2            -19.9588363704        1.5287868971      -24.6588403214  TIP3      4344            0.0000000000
     35285      4537  TIP3      OH2           -33.0425038754       -6.2857808615      -25.6877830034  TIP3      4345            0.0000000000
     35286      4537  TIP3      H1            -32.3090438910       -6.0133976189      -25.1202134256  TIP3      4345            0.0000000000
     35287      4537  TIP3      H2            -33.8105535899       -6.1405185895      -25.1101214488  TIP3      4345            0.0000000000
     35288      4538  TIP3      OH2           -27.0237774005      -10.8640020443      -32.9316908329  TIP3      4346            0.0000000000
     35289      4538  TIP3      H1            -26.4208732300      -11.3938418717      -33.4684789669  TIP3      4346            0.0000000000
     35290      4538  TIP3      H2            -27.1646522331      -11.4119318666      -32.1449898816  TIP3      4346            0.0000000000
     35291      4539  TIP3      OH2           -32.0143458451      -14.7051250873      -36.4976412383  TIP3      4347            0.0000000000
     35292      4539  TIP3      H1            -32.3206569232      -15.6281172151      -36.5162356710  TIP3      4347            0.0000000000
     35293      4539  TIP3      H2            -31.2176623664      -14.7749010550      -37.0438270963  TIP3      4347            0.0000000000
     35294      4540  TIP3      OH2           -28.3596423805      -12.5029790722      -30.5295234714  TIP3      4348            0.0000000000
     35295      4540  TIP3      H1            -29.2011656276      -12.0231400606      -30.4162497762  TIP3      4348            0.0000000000
     35296      4540  TIP3      H2            -27.8286697163      -12.1861035512      -29.7760762609  TIP3      4348            0.0000000000
     35297      4541  TIP3      OH2           -27.7814513674       -6.3201628941      -38.8064513481  TIP3      4349            0.0000000000
     35298      4541  TIP3      H1            -28.5821201092       -6.7784849811      -39.1447452163  TIP3      4349            0.0000000000
     35299      4541  TIP3      H2            -28.0033843214       -6.2079944896      -37.8634452707  TIP3      4349            0.0000000000
     35300      4542  TIP3      OH2           -20.6077519129       -7.1106432645      -30.0237863668  TIP3      4350            0.0000000000
     35301      4542  TIP3      H1            -20.0392420506       -6.6268824122      -30.6500341837  TIP3      4350            0.0000000000
     35302      4542  TIP3      H2            -21.4663258068       -7.0537281812      -30.4922648317  TIP3      4350            0.0000000000
     35303      4543  TIP3      OH2           -23.9097591152      -13.5005538265      -40.6542681033  TIP3      4351            0.0000000000
     35304      4543  TIP3      H1            -24.8609140764      -13.3547104049      -40.8092213038  TIP3      4351            0.0000000000
     35305      4543  TIP3      H2            -23.6191790284      -12.6296810437      -40.3284412867  TIP3      4351            0.0000000000
     35306      4544  TIP3      OH2           -26.2859523258       -6.0409539572      -27.6106594583  TIP3      4352            0.0000000000
     35307      4544  TIP3      H1            -26.6574936211       -6.4681272813      -26.8320291007  TIP3      4352            0.0000000000
     35308      4544  TIP3      H2            -26.5599010442       -5.1253756371      -27.5044468430  TIP3      4352            0.0000000000
     35309      4545  TIP3      OH2           -23.2168767383      -11.5713569547      -38.9740469791  TIP3      4353            0.0000000000
     35310      4545  TIP3      H1            -22.3183448191      -11.7105396425      -38.6171383113  TIP3      4353            0.0000000000
     35311      4545  TIP3      H2            -23.1294626340      -10.7646356218      -39.5044084163  TIP3      4353            0.0000000000
     35312      4546  TIP3      OH2           -32.6888292222       -6.9184132541      -33.0413722959  TIP3      4354            0.0000000000
     35313      4546  TIP3      H1            -31.9961949376       -6.9923533675      -33.7176302486  TIP3      4354            0.0000000000
     35314      4546  TIP3      H2            -32.5919799309       -7.7594249289      -32.5624439104  TIP3      4354            0.0000000000
     35315      4547  TIP3      OH2           -25.6859122421       -4.8378781603      -39.7659949635  TIP3      4355            0.0000000000
     35316      4547  TIP3      H1            -26.0505288344       -3.9930332250      -39.4307917431  TIP3      4355            0.0000000000
     35317      4547  TIP3      H2            -26.4253986422       -5.4613285807      -39.5889580108  TIP3      4355            0.0000000000
     35318      4548  TIP3      OH2           -35.7159433689       -8.5247960371      -27.7631954976  TIP3      4356            0.0000000000
     35319      4548  TIP3      H1            -35.4628281619       -8.9648420349      -26.9295294025  TIP3      4356            0.0000000000
     35320      4548  TIP3      H2            -36.3069242509       -9.1617216375      -28.1862154605  TIP3      4356            0.0000000000
     35321      4549  TIP3      OH2           -28.6670286251       -8.9307631015      -25.5807634547  TIP3      4357            0.0000000000
     35322      4549  TIP3      H1            -29.0009051342       -9.2460092769      -26.4408191201  TIP3      4357            0.0000000000
     35323      4549  TIP3      H2            -27.7546614556       -9.2715721081      -25.5968090370  TIP3      4357            0.0000000000
     35324      4550  TIP3      OH2           -23.9979630480       -3.6115326941      -27.6031679552  TIP3      4358            0.0000000000
     35325      4550  TIP3      H1            -24.9149410443       -3.4362680709      -27.8821924967  TIP3      4358            0.0000000000
     35326      4550  TIP3      H2            -24.0397873579       -3.3612364181      -26.6827335210  TIP3      4358            0.0000000000
     35327      4551  TIP3      OH2           -18.3242642260      -11.4354579216      -39.2294299351  TIP3      4359            0.0000000000
     35328      4551  TIP3      H1            -18.8852058366      -11.7478779736      -39.9606680196  TIP3      4359            0.0000000000
     35329      4551  TIP3      H2            -18.2427374989      -10.4976991752      -39.5112453237  TIP3      4359            0.0000000000
     35330      4552  TIP3      OH2           -18.3281496173       -5.5819380006      -26.4227307811  TIP3      4360            0.0000000000
     35331      4552  TIP3      H1            -19.2141333124       -5.3583947416      -26.7991959018  TIP3      4360            0.0000000000
     35332      4552  TIP3      H2            -17.7874333617       -5.6230434025      -27.2374655805  TIP3      4360            0.0000000000
     35333      4553  TIP3      OH2           -20.0675912617       -2.6077091601      -38.8635770592  TIP3      4361            0.0000000000
     35334      4553  TIP3      H1            -20.3917398960       -3.4464899384      -38.5210602415  TIP3      4361            0.0000000000
     35335      4553  TIP3      H2            -19.7193877955       -2.8037510392      -39.7529954092  TIP3      4361            0.0000000000
     35336      4554  TIP3      OH2           -22.8241507027       -7.7896092957      -31.7425275529  TIP3      4362            0.0000000000
     35337      4554  TIP3      H1            -23.7656156721       -8.0025436491      -31.8529307457  TIP3      4362            0.0000000000
     35338      4554  TIP3      H2            -22.3942605955       -8.5521288795      -32.1717832235  TIP3      4362            0.0000000000
     35339      4555  TIP3      OH2           -30.3251533593       -3.4719125102      -35.6208959107  TIP3      4363            0.0000000000
     35340      4555  TIP3      H1            -29.8026800834       -2.6856983180      -35.8424150340  TIP3      4363            0.0000000000
     35341      4555  TIP3      H2            -31.2007845274       -3.2458557463      -35.9619375802  TIP3      4363            0.0000000000
     35342      4556  TIP3      OH2           -34.6236477469       -8.6250288482      -41.0701958185  TIP3      4364            0.0000000000
     35343      4556  TIP3      H1            -33.9513921515       -7.9961672544      -40.7313835435  TIP3      4364            0.0000000000
     35344      4556  TIP3      H2            -35.4520943359       -8.2698660018      -40.7450850037  TIP3      4364            0.0000000000
     35345      4557  TIP3      OH2           -28.8835333479       -5.7966869890      -36.1144273520  TIP3      4365            0.0000000000
     35346      4557  TIP3      H1            -29.1953349956       -4.8745568825      -36.0368934902  TIP3      4365            0.0000000000
     35347      4557  TIP3      H2            -29.6130270756       -6.2819695600      -35.6782222471  TIP3      4365            0.0000000000
     35348      4558  TIP3      OH2           -28.4307666901       -1.6149604037      -29.7253443713  TIP3      4366            0.0000000000
     35349      4558  TIP3      H1            -27.9860150228       -0.7986349702      -30.0015976022  TIP3      4366            0.0000000000
     35350      4558  TIP3      H2            -27.8255662938       -1.9487505894      -29.0423820562  TIP3      4366            0.0000000000
     35351      4559  TIP3      OH2           -30.2171978221       -0.7570533614      -36.6365853910  TIP3      4367            0.0000000000
     35352      4559  TIP3      H1            -31.1792498284       -0.6981599864      -36.4304242516  TIP3      4367            0.0000000000
     35353      4559  TIP3      H2            -29.8289411957        0.0002142229      -36.1764628961  TIP3      4367            0.0000000000
     35354      4560  TIP3      OH2           -24.8971311148       -5.5916848536      -30.1032383280  TIP3      4368            0.0000000000
     35355      4560  TIP3      H1            -25.2508892748       -5.7953602140      -29.2158831023  TIP3      4368            0.0000000000
     35356      4560  TIP3      H2            -24.2700317305       -6.3168186149      -30.2567611738  TIP3      4368            0.0000000000
     35357      4561  TIP3      OH2           -22.6279152936       -4.5783605355      -40.9760588457  TIP3      4369            0.0000000000
     35358      4561  TIP3      H1            -22.3167959644       -5.0196402707      -40.1600818100  TIP3      4369            0.0000000000
     35359      4561  TIP3      H2            -23.5828381737       -4.7299733891      -40.9048795416  TIP3      4369            0.0000000000
     35360      4562  TIP3      OH2           -22.1480475408       -1.0104096958      -27.5672551796  TIP3      4370            0.0000000000
     35361      4562  TIP3      H1            -22.7787782902       -1.5288122850      -28.0990308645  TIP3      4370            0.0000000000
     35362      4562  TIP3      H2            -21.9060984918       -0.3285528698      -28.2350308174  TIP3      4370            0.0000000000
     35363      4563  TIP3      OH2           -18.2510840985       -0.1209354868      -40.8725954060  TIP3      4371            0.0000000000
     35364      4563  TIP3      H1            -17.4277611122        0.4192043190      -40.9496540051  TIP3      4371            0.0000000000
     35365      4563  TIP3      H2            -18.8603601719        0.5029292879      -40.4365438646  TIP3      4371            0.0000000000
     35366      4564  TIP3      OH2           -34.0356274847      -13.7649716956      -28.2549123754  TIP3      4372            0.0000000000
     35367      4564  TIP3      H1            -34.9269758677      -13.4006665166      -28.1811395610  TIP3      4372            0.0000000000
     35368      4564  TIP3      H2            -34.1516850765      -14.6035256751      -27.7727004802  TIP3      4372            0.0000000000
     35369      4565  TIP3      OH2           -21.7945659030       -5.9134947093      -38.7570380876  TIP3      4373            0.0000000000
     35370      4565  TIP3      H1            -22.0376546710       -6.7116451252      -38.2423596077  TIP3      4373            0.0000000000
     35371      4565  TIP3      H2            -20.8471902825       -5.8465906415      -38.5533427772  TIP3      4373            0.0000000000
     35372      4566  TIP3      OH2           -34.2913470603       -1.9181963119      -29.8244860371  TIP3      4374            0.0000000000
     35373      4566  TIP3      H1            -34.1540460020       -2.8796921775      -29.7813433864  TIP3      4374            0.0000000000
     35374      4566  TIP3      H2            -34.1675349447       -1.7060606722      -28.8956402039  TIP3      4374            0.0000000000
     35375      4567  TIP3      OH2           -29.6718712008       -3.9036340564      -40.0785948723  TIP3      4375            0.0000000000
     35376      4567  TIP3      H1            -29.4189968488       -4.4625769755      -39.3325020092  TIP3      4375            0.0000000000
     35377      4567  TIP3      H2            -29.5935467003       -2.9931449979      -39.7345916850  TIP3      4375            0.0000000000
     35378      4568  TIP3      OH2           -33.2046370788       -6.6728120401      -39.6073145542  TIP3      4376            0.0000000000
     35379      4568  TIP3      H1            -33.8809812835       -6.2812123840      -39.0112946649  TIP3      4376            0.0000000000
     35380      4568  TIP3      H2            -32.6434786431       -5.9128692569      -39.8345427672  TIP3      4376            0.0000000000
     35381      4569  TIP3      OH2           -25.2933216149      -14.0066990956      -29.2778521994  TIP3      4377            0.0000000000
     35382      4569  TIP3      H1            -24.5866050525      -13.9447032216      -28.6272610138  TIP3      4377            0.0000000000
     35383      4569  TIP3      H2            -25.7280450236      -14.8418260888      -29.0541675191  TIP3      4377            0.0000000000
     35384      4570  TIP3      OH2           -24.5679773545      -14.3957059869      -38.1679378606  TIP3      4378            0.0000000000
     35385      4570  TIP3      H1            -24.3074646606      -13.9394317031      -38.9921814429  TIP3      4378            0.0000000000
     35386      4570  TIP3      H2            -23.9820756116      -13.9927449545      -37.5185671578  TIP3      4378            0.0000000000
     35387      4571  TIP3      OH2           -26.8675645400       -2.2614718406      -39.3409206971  TIP3      4379            0.0000000000
     35388      4571  TIP3      H1            -27.6882146083       -1.7491335022      -39.2899923628  TIP3      4379            0.0000000000
     35389      4571  TIP3      H2            -26.3301787799       -1.7587526366      -39.9764683451  TIP3      4379            0.0000000000
     35390      4572  TIP3      OH2           -27.3438222840      -12.6820503381      -37.3575310418  TIP3      4380            0.0000000000
     35391      4572  TIP3      H1            -26.5473955596      -12.1179428994      -37.3269611874  TIP3      4380            0.0000000000
     35392      4572  TIP3      H2            -27.6023664748      -12.8092562339      -36.4270121806  TIP3      4380            0.0000000000
     35393      4573  TIP3      OH2           -26.7115096121      -11.6280144419      -28.2312701889  TIP3      4381            0.0000000000
     35394      4573  TIP3      H1            -26.7287278771      -11.1055877761      -27.4131220759  TIP3      4381            0.0000000000
     35395      4573  TIP3      H2            -26.1474454973      -12.3821086434      -28.0499532499  TIP3      4381            0.0000000000
     35396      4574  TIP3      OH2           -26.4780184380      -15.6124590581      -36.4896607497  TIP3      4382            0.0000000000
     35397      4574  TIP3      H1            -26.7973534253      -14.9899865091      -35.8212470732  TIP3      4382            0.0000000000
     35398      4574  TIP3      H2            -25.7686755771      -15.0836015649      -36.9122141741  TIP3      4382            0.0000000000
     35399      4575  TIP3      OH2           -29.5136971023       -1.2166239226      -39.3295161073  TIP3      4383            0.0000000000
     35400      4575  TIP3      H1            -29.3247997337       -0.4038177601      -39.8401784139  TIP3      4383            0.0000000000
     35401      4575  TIP3      H2            -29.7404476438       -0.8926666041      -38.4321218371  TIP3      4383            0.0000000000
     35402      4576  TIP3      OH2           -30.8058236677      -14.5333341630      -39.7310907546  TIP3      4384            0.0000000000
     35403      4576  TIP3      H1            -30.8834761669      -13.6201949753      -39.3854079568  TIP3      4384            0.0000000000
     35404      4576  TIP3      H2            -29.8951895385      -14.7521799180      -39.4529764926  TIP3      4384            0.0000000000
     35405      4577  TIP3      OH2           -20.6081919044      -13.7995346512      -27.3146141192  TIP3      4385            0.0000000000
     35406      4577  TIP3      H1            -21.5270236139      -13.4775202639      -27.4537885518  TIP3      4385            0.0000000000
     35407      4577  TIP3      H2            -20.2820990108      -13.7948172796      -28.2291422706  TIP3      4385            0.0000000000
     35408      4578  TIP3      OH2           -21.9885590486       -9.9965903239      -33.2989813173  TIP3      4386            0.0000000000
     35409      4578  TIP3      H1            -22.8089750914      -10.4400757168      -33.5808355243  TIP3      4386            0.0000000000
     35410      4578  TIP3      H2            -21.5103260956      -10.6863732250      -32.7839773129  TIP3      4386            0.0000000000
     35411      4579  TIP3      OH2           -32.5994132144       -4.0477572777      -40.7179738212  TIP3      4387            0.0000000000
     35412      4579  TIP3      H1            -31.9316145033       -3.4319649280      -40.3948385742  TIP3      4387            0.0000000000
     35413      4579  TIP3      H2            -32.0730581547       -4.5399127617      -41.3806367773  TIP3      4387            0.0000000000
     35414      4580  TIP3      OH2           -34.2082277090      -11.3896183110      -41.4891938121  TIP3      4388            0.0000000000
     35415      4580  TIP3      H1            -34.2249441307      -10.4284690092      -41.3860728865  TIP3      4388            0.0000000000
     35416      4580  TIP3      H2            -35.0557524124      -11.6233423427      -41.8832682850  TIP3      4388            0.0000000000
     35417      4581  TIP3      OH2           -20.9237255186       -0.7389459205      -31.6287921013  TIP3      4389            0.0000000000
     35418      4581  TIP3      H1            -21.0167213834       -0.0569907863      -32.3219588624  TIP3      4389            0.0000000000
     35419      4581  TIP3      H2            -19.9590565755       -0.6829091926      -31.4554346345  TIP3      4389            0.0000000000
     35420      4582  TIP3      OH2           -33.4136513368      -16.6277523742      -32.8566731086  TIP3      4390            0.0000000000
     35421      4582  TIP3      H1            -33.6297915394      -16.5937239530      -33.8136614772  TIP3      4390            0.0000000000
     35422      4582  TIP3      H2            -33.8473381528      -17.4582383864      -32.5776729196  TIP3      4390            0.0000000000
     35423      4583  TIP3      OH2           -34.4582262341       -2.6901241372      -36.6657066864  TIP3      4391            0.0000000000
     35424      4583  TIP3      H1            -35.3194718386       -2.2609935710      -36.7145009074  TIP3      4391            0.0000000000
     35425      4583  TIP3      H2            -33.9914289663       -2.2407481735      -37.3833393222  TIP3      4391            0.0000000000
     35426      4584  TIP3      OH2           -30.6038991216       -1.1637016008      -23.7913787455  TIP3      4392            0.0000000000
     35427      4584  TIP3      H1            -29.8044262902       -1.5855770166      -23.4439895796  TIP3      4392            0.0000000000
     35428      4584  TIP3      H2            -30.6093637391       -1.3841509165      -24.7356882855  TIP3      4392            0.0000000000
     35429      4585  TIP3      OH2           -26.0995345033       -1.5536164356      -41.8206344279  TIP3      4393            0.0000000000
     35430      4585  TIP3      H1            -26.9354052579       -2.0468970246      -41.9148578933  TIP3      4393            0.0000000000
     35431      4585  TIP3      H2            -25.6042734271       -2.0180177774      -42.4984429805  TIP3      4393            0.0000000000
     35432      4586  TIP3      OH2           -21.8799970653       -1.8355914355      -42.1944596836  TIP3      4394            0.0000000000
     35433      4586  TIP3      H1            -21.6306135987       -2.6462205151      -41.7104181219  TIP3      4394            0.0000000000
     35434      4586  TIP3      H2            -21.0907821902       -1.6312135857      -42.7150590430  TIP3      4394            0.0000000000
     35435      4587  TIP3      OH2           -35.3738270333       -6.3132577122      -24.3826869571  TIP3      4395            0.0000000000
     35436      4587  TIP3      H1            -35.1620085104       -7.1852855194      -24.7667170281  TIP3      4395            0.0000000000
     35437      4587  TIP3      H2            -36.0690891296       -5.9858216732      -24.9792072898  TIP3      4395            0.0000000000
     35438      4588  TIP3      OH2           -30.9206929733       -5.8529605539      -42.2437081594  TIP3      4396            0.0000000000
     35439      4588  TIP3      H1            -30.8721160126       -6.6916600612      -41.7780949053  TIP3      4396            0.0000000000
     35440      4588  TIP3      H2            -30.3580578442       -6.0829209044      -43.0074133863  TIP3      4396            0.0000000000
     35441      4589  TIP3      OH2           -28.5486854072       -6.2682893330      -25.0380467036  TIP3      4397            0.0000000000
     35442      4589  TIP3      H1            -28.9847182708       -5.9705227017      -25.8637492876  TIP3      4397            0.0000000000
     35443      4589  TIP3      H2            -28.5604407553       -7.2471012423      -25.1462050634  TIP3      4397            0.0000000000
     35444      4590  TIP3      OH2           -22.9466499789       -6.4057399929      -27.5964518226  TIP3      4398            0.0000000000
     35445      4590  TIP3      H1            -22.1507095317       -5.8416960058      -27.7146863005  TIP3      4398            0.0000000000
     35446      4590  TIP3      H2            -23.6474610374       -5.7431925092      -27.6024643908  TIP3      4398            0.0000000000
     35447      4591  TIP3      OH2           -34.5188454774       -9.0397782356      -25.0081134032  TIP3      4399            0.0000000000
     35448      4591  TIP3      H1            -34.0425448691       -9.8858419242      -25.1358304017  TIP3      4399            0.0000000000
     35449      4591  TIP3      H2            -34.6803085714       -9.0670700695      -24.0561840519  TIP3      4399            0.0000000000
     35450      4592  TIP3      OH2           -29.7946589766       -7.8870865605      -39.9689127700  TIP3      4400            0.0000000000
     35451      4592  TIP3      H1            -30.2950167444       -8.4208720780      -39.3292538216  TIP3      4400            0.0000000000
     35452      4592  TIP3      H2            -29.4933618668       -8.5832237455      -40.6007667836  TIP3      4400            0.0000000000
     35453      4593  TIP3      OH2           -30.5393640264      -10.0753225761      -27.6370468313  TIP3      4401            0.0000000000
     35454      4593  TIP3      H1            -31.1576166572       -9.3755121781      -27.4011233913  TIP3      4401            0.0000000000
     35455      4593  TIP3      H2            -30.1556248730       -9.7464992288      -28.4675877476  TIP3      4401            0.0000000000
     35456      4594  TIP3      OH2           -28.7367996835       -9.6644692789      -41.7558392063  TIP3      4402            0.0000000000
     35457      4594  TIP3      H1            -28.8483020952       -9.8682606140      -42.6927752858  TIP3      4402            0.0000000000
     35458      4594  TIP3      H2            -27.7557172651       -9.5967927391      -41.6556762775  TIP3      4402            0.0000000000
     35459      4595  TIP3      OH2           -19.5286897550       -7.2404878078       42.7515994571  TIP3      4403            0.0000000000
     35460      4595  TIP3      H1            -19.6380412854       -7.7334483379       41.9218593467  TIP3      4403            0.0000000000
     35461      4595  TIP3      H2            -19.3184177226       -6.3368682853       42.4820903308  TIP3      4403            0.0000000000
     35462      4596  TIP3      OH2           -29.7182783186      -14.3665714925      -29.0570988278  TIP3      4404            0.0000000000
     35463      4596  TIP3      H1            -29.2149245447      -13.8912564438      -29.7457622579  TIP3      4404            0.0000000000
     35464      4596  TIP3      H2            -30.6129441545      -14.4410325192      -29.4447961967  TIP3      4404            0.0000000000
     35465      4597  TIP3      OH2           -28.1828917642       -8.8452163974      -28.8001887924  TIP3      4405            0.0000000000
     35466      4597  TIP3      H1            -27.4386575295       -9.0362220020      -29.3803248319  TIP3      4405            0.0000000000
     35467      4597  TIP3      H2            -28.5609056516       -8.0250745284      -29.1534223588  TIP3      4405            0.0000000000
     35468      4598  TIP3      OH2           -23.7848291544      -11.0806434778      -23.8510600202  TIP3      4406            0.0000000000
     35469      4598  TIP3      H1            -23.5515492677      -12.0118591797      -23.8777027657  TIP3      4406            0.0000000000
     35470      4598  TIP3      H2            -22.9069557732      -10.6422076285      -23.8218246444  TIP3      4406            0.0000000000
     35471      4599  TIP3      OH2           -22.4954720737       -8.3264324152      -25.7670534701  TIP3      4407            0.0000000000
     35472      4599  TIP3      H1            -22.7003672766       -7.5603454045      -26.3334429434  TIP3      4407            0.0000000000
     35473      4599  TIP3      H2            -21.5233226130       -8.3179950378      -25.8380260235  TIP3      4407            0.0000000000
     35474      4600  TIP3      OH2           -31.7026181185      -11.4233022368      -24.7098479233  TIP3      4408            0.0000000000
     35475      4600  TIP3      H1            -32.4454131513      -12.0534644859      -24.8314305622  TIP3      4408            0.0000000000
     35476      4600  TIP3      H2            -31.0265748194      -11.8055285981      -25.2794509299  TIP3      4408            0.0000000000
     35477      4601  TIP3      OH2           -33.4687126425      -13.5572862513      -24.9295234390  TIP3      4409            0.0000000000
     35478      4601  TIP3      H1            -33.3225833193      -14.3081062447      -25.5279782578  TIP3      4409            0.0000000000
     35479      4601  TIP3      H2            -33.5834543202      -14.0074818363      -24.0607849821  TIP3      4409            0.0000000000
     35480      4602  TIP3      OH2           -28.8544145323      -17.7068554466      -26.0398097914  TIP3      4410            0.0000000000
     35481      4602  TIP3      H1            -28.0665185421      -18.2791533752      -25.9946624807  TIP3      4410            0.0000000000
     35482      4602  TIP3      H2            -28.8688985030      -17.3706275224      -26.9330207914  TIP3      4410            0.0000000000
     35483      4603  TIP3      OH2           -28.9036369347        1.0494419569      -40.7000149040  TIP3      4411            0.0000000000
     35484      4603  TIP3      H1            -27.9187621632        1.1037094324      -40.6233549256  TIP3      4411            0.0000000000
     35485      4603  TIP3      H2            -29.0578511855        1.6630368986      -41.4210680118  TIP3      4411            0.0000000000
     35486      4604  TIP3      OH2           -35.2812918908       -4.4050142067      -41.2151749789  TIP3      4412            0.0000000000
     35487      4604  TIP3      H1            -34.3276986673       -4.2971656584      -40.9946686871  TIP3      4412            0.0000000000
     35488      4604  TIP3      H2            -35.2726528749       -4.9977642575      -41.9703068169  TIP3      4412            0.0000000000
     35489      4605  TIP3      OH2            36.8633104562        1.1400210167      -36.3742436399  TIP3      4413            0.0000000000
     35490      4605  TIP3      H1             35.9761612154        0.9089171716      -36.7327807077  TIP3      4413            0.0000000000
     35491      4605  TIP3      H2             36.9427662586        0.4687110368      -35.6572536926  TIP3      4413            0.0000000000
     35492      4606  TIP3      OH2           -35.7655471571       -0.8349254429      -34.3877450312  TIP3      4414            0.0000000000
     35493      4606  TIP3      H1            -36.0463496334       -1.7596784917      -34.1928527580  TIP3      4414            0.0000000000
     35494      4606  TIP3      H2            -35.4414018227       -0.5846835166      -33.5059380773  TIP3      4414            0.0000000000
     35495      4607  TIP3      OH2           -18.2053624453       -0.0897185851      -31.4233764446  TIP3      4415            0.0000000000
     35496      4607  TIP3      H1            -18.1706233594        0.0811074041      -30.4671389861  TIP3      4415            0.0000000000
     35497      4607  TIP3      H2            -17.4988805243        0.4784644021      -31.7546346506  TIP3      4415            0.0000000000
     35498      4608  TIP3      OH2           -18.6181303163       -0.5003337890      -28.4873954791  TIP3      4416            0.0000000000
     35499      4608  TIP3      H1            -19.1005324034       -1.2648303012      -28.8638486600  TIP3      4416            0.0000000000
     35500      4608  TIP3      H2            -18.1316926232       -0.9464730529      -27.7764217850  TIP3      4416            0.0000000000
     35501      4609  TIP3      OH2           -20.2050144894       -4.7298028751      -23.8813585276  TIP3      4417            0.0000000000
     35502      4609  TIP3      H1            -21.0257904125       -4.8704704956      -23.4095934852  TIP3      4417            0.0000000000
     35503      4609  TIP3      H2            -19.7813943374       -4.0001804904      -23.3703537030  TIP3      4417            0.0000000000
     35504      4610  TIP3      OH2           -18.8597812392       -6.4556860573      -38.3871815216  TIP3      4418            0.0000000000
     35505      4610  TIP3      H1            -18.0066130761       -6.0457071075      -38.1789330033  TIP3      4418            0.0000000000
     35506      4610  TIP3      H2            -18.8829300356       -7.1684789279      -37.7112758992  TIP3      4418            0.0000000000
     35507      4611  TIP3      OH2           -18.5113336985       -8.3857825156      -36.5080837425  TIP3      4419            0.0000000000
     35508      4611  TIP3      H1            -19.2583367921       -8.8870371689      -36.1134111124  TIP3      4419            0.0000000000
     35509      4611  TIP3      H2            -17.9107825660       -8.2247412154      -35.7480838262  TIP3      4419            0.0000000000
     35510      4612  TIP3      OH2           -18.7523784756       -5.6772916778      -31.5175121059  TIP3      4420            0.0000000000
     35511      4612  TIP3      H1            -17.9319513838       -6.0476039056      -31.8900377714  TIP3      4420            0.0000000000
     35512      4612  TIP3      H2            -18.6078356264       -4.7209566563      -31.6789445507  TIP3      4420            0.0000000000
     35513      4613  TIP3      OH2           -20.2005461003       -2.7725417134      -29.2459330291  TIP3      4421            0.0000000000
     35514      4613  TIP3      H1            -20.8905386371       -2.4355188671      -28.6540440961  TIP3      4421            0.0000000000
     35515      4613  TIP3      H2            -20.7391583983       -3.1782077723      -29.9600840768  TIP3      4421            0.0000000000
     35516      4614  TIP3      OH2           -18.2155239204       -8.5547058971      -40.1283055207  TIP3      4422            0.0000000000
     35517      4614  TIP3      H1            -18.7962084035       -8.1881961922      -40.8196236150  TIP3      4422            0.0000000000
     35518      4614  TIP3      H2            -18.2796476923       -7.8484640817      -39.4506968083  TIP3      4422            0.0000000000
     35519      4615  TIP3      OH2           -20.2033476734      -11.2871848638      -41.4956181722  TIP3      4423            0.0000000000
     35520      4615  TIP3      H1            -19.7679838565      -10.6956327711      -42.1309425184  TIP3      4423            0.0000000000
     35521      4615  TIP3      H2            -20.0318118759      -12.1289039239      -41.9622061971  TIP3      4423            0.0000000000
     35522      4616  TIP3      OH2           -20.6885000304       -9.8976010316      -35.9318732233  TIP3      4424            0.0000000000
     35523      4616  TIP3      H1            -20.8377476378      -10.8536861574      -35.9719691003  TIP3      4424            0.0000000000
     35524      4616  TIP3      H2            -21.0222170394       -9.6786900694      -35.0427534919  TIP3      4424            0.0000000000
     35525      4617  TIP3      OH2           -35.6614502852       -7.8245845740      -31.9475978135  TIP3      4425            0.0000000000
     35526      4617  TIP3      H1            -35.4635769159       -7.8742605886      -32.9037834665  TIP3      4425            0.0000000000
     35527      4617  TIP3      H2            -34.7831198887       -7.9449624882      -31.5267918894  TIP3      4425            0.0000000000
     35528      4618  TIP3      OH2           -19.8461475091       -7.9351110783      -26.2698364487  TIP3      4426            0.0000000000
     35529      4618  TIP3      H1            -19.2491654034       -8.6867432847      -26.0646458699  TIP3      4426            0.0000000000
     35530      4618  TIP3      H2            -19.2441910730       -7.1617788591      -26.2371373834  TIP3      4426            0.0000000000
     35531      4619  TIP3      OH2           -18.3117847323      -10.0359383232      -25.6482353091  TIP3      4427            0.0000000000
     35532      4619  TIP3      H1            -19.2098007473      -10.4374807208      -25.7103500809  TIP3      4427            0.0000000000
     35533      4619  TIP3      H2            -17.7598706994      -10.8274474821      -25.6486963571  TIP3      4427            0.0000000000
     35534      4620  TIP3      OH2           -20.5857681304      -13.9047140734      -42.4913292222  TIP3      4428            0.0000000000
     35535      4620  TIP3      H1            -20.0063989280      -14.3076558544      -41.8140342794  TIP3      4428            0.0000000000
     35536      4620  TIP3      H2            -21.4725945604      -14.2409868045      -42.2760937022  TIP3      4428            0.0000000000
     35537      4621  TIP3      OH2           -21.0190711947      -12.3143095928      -37.4575483750  TIP3      4429            0.0000000000
     35538      4621  TIP3      H1            -20.7126378396      -13.2438306746      -37.3480152432  TIP3      4429            0.0000000000
     35539      4621  TIP3      H2            -20.2399039052      -11.9107207698      -37.8629001172  TIP3      4429            0.0000000000
     35540      4622  TIP3      OH2           -20.3833556813      -11.7710965393      -32.0339006836  TIP3      4430            0.0000000000
     35541      4622  TIP3      H1            -19.4230776445      -11.5386653307      -32.0502708981  TIP3      4430            0.0000000000
     35542      4622  TIP3      H2            -20.5728727790      -11.6318725500      -31.0931202467  TIP3      4430            0.0000000000
     35543      4623  TIP3      OH2           -20.3188942996      -11.0470404027      -29.2728499143  TIP3      4431            0.0000000000
     35544      4623  TIP3      H1            -21.1823959604      -10.7466838116      -28.9156643104  TIP3      4431            0.0000000000
     35545      4623  TIP3      H2            -19.8786268658      -10.1874208276      -29.4763213523  TIP3      4431            0.0000000000
     35546      4624  TIP3      OH2           -35.8022314098      -12.6410767854      -25.7583234195  TIP3      4432            0.0000000000
     35547      4624  TIP3      H1            -34.9235623823      -12.8182015187      -25.3986474664  TIP3      4432            0.0000000000
     35548      4624  TIP3      H2            -36.3732895922      -13.3171754594      -25.3200088883  TIP3      4432            0.0000000000
     35549      4625  TIP3      OH2           -17.9629214270      -16.9915871500      -23.8846485202  TIP3      4433            0.0000000000
     35550      4625  TIP3      H1            -17.7075411018      -17.6745438849      -24.5289702113  TIP3      4433            0.0000000000
     35551      4625  TIP3      H2            -17.9465148560      -16.1941513411      -24.4526853557  TIP3      4433            0.0000000000
     35552      4626  TIP3      OH2           -20.3503074509      -15.0411634107      -37.4294886241  TIP3      4434            0.0000000000
     35553      4626  TIP3      H1            -20.1446783946      -15.4769067651      -36.5740436042  TIP3      4434            0.0000000000
     35554      4626  TIP3      H2            -20.9594175202      -15.6678927786      -37.8736214838  TIP3      4434            0.0000000000
     35555      4627  TIP3      OH2           -34.8299084238      -14.2628592739      -32.9128490267  TIP3      4435            0.0000000000
     35556      4627  TIP3      H1            -34.3677740066      -15.0548044904      -32.5850426157  TIP3      4435            0.0000000000
     35557      4627  TIP3      H2            -34.3302267233      -13.5527743449      -32.4681274050  TIP3      4435            0.0000000000
     35558      4628  TIP3      OH2           -36.0119567303      -10.4931894211      -31.4778105581  TIP3      4436            0.0000000000
     35559      4628  TIP3      H1            -35.9975050860      -10.9194510637      -32.3632034668  TIP3      4436            0.0000000000
     35560      4628  TIP3      H2            -35.9315460039       -9.5802082467      -31.7460102094  TIP3      4436            0.0000000000
     35561      4629  TIP3      OH2           -18.5125171505      -14.9261706773      -25.5199795441  TIP3      4437            0.0000000000
     35562      4629  TIP3      H1            -19.4469822834      -14.6364600097      -25.6066980507  TIP3      4437            0.0000000000
     35563      4629  TIP3      H2            -18.4570974813      -15.4262941278      -26.3518265826  TIP3      4437            0.0000000000
     35564      4630  TIP3      OH2           -18.5347989378      -14.9737128863      -40.8664992148  TIP3      4438            0.0000000000
     35565      4630  TIP3      H1            -18.1029402037      -15.6858455704      -41.3665324355  TIP3      4438            0.0000000000
     35566      4630  TIP3      H2            -17.8108496710      -14.3233447548      -40.8463267249  TIP3      4438            0.0000000000
     35567      4631  TIP3      OH2           -35.7502296948      -14.9806249640      -38.1308882358  TIP3      4439            0.0000000000
     35568      4631  TIP3      H1            -36.6994943421      -14.8151291963      -38.0605083813  TIP3      4439            0.0000000000
     35569      4631  TIP3      H2            -35.5162025815      -14.2699608277      -38.7628987137  TIP3      4439            0.0000000000
     35570      4632  TIP3      OH2           -21.4898804690        0.0015846245      -35.8238710630  TIP3      4440            0.0000000000
     35571      4632  TIP3      H1            -20.7874056446       -0.3165470223      -36.4284644900  TIP3      4440            0.0000000000
     35572      4632  TIP3      H2            -20.9466740055        0.4803486318      -35.1778522187  TIP3      4440            0.0000000000
     35573      4633  TIP3      OH2            37.0420882374      -16.3333748980      -29.2722957543  TIP3      4441            0.0000000000
     35574      4633  TIP3      H1             36.2501104791      -16.5411248025      -28.7479609625  TIP3      4441            0.0000000000
     35575      4633  TIP3      H2             36.5582011439      -15.8057206687      -29.9317421684  TIP3      4441            0.0000000000
     35576      4634  TIP3      OH2           -34.0568916995       -3.0631163458      -25.2674241795  TIP3      4442            0.0000000000
     35577      4634  TIP3      H1            -34.9067887032       -2.8937447509      -25.7049717830  TIP3      4442            0.0000000000
     35578      4634  TIP3      H2            -34.3381003850       -3.1677573050      -24.3594644948  TIP3      4442            0.0000000000
     35579      4635  TIP3      OH2           -31.1116271752       -2.0831333951      -29.0081765252  TIP3      4443            0.0000000000
     35580      4635  TIP3      H1            -31.5034005582       -1.2479850849      -29.3058206588  TIP3      4443            0.0000000000
     35581      4635  TIP3      H2            -30.1957382860       -1.9899075568      -29.3305864887  TIP3      4443            0.0000000000
     35582      4636  TIP3      OH2           -26.7946023426       -0.7220626727      -26.1316937399  TIP3      4444            0.0000000000
     35583      4636  TIP3      H1            -26.6700743052       -0.9988985697      -25.2114002022  TIP3      4444            0.0000000000
     35584      4636  TIP3      H2            -25.9183541420       -0.3353322320      -26.3389578658  TIP3      4444            0.0000000000
     35585      4637  TIP3      OH2           -24.5141692885        0.5696352750      -26.8249084424  TIP3      4445            0.0000000000
     35586      4637  TIP3      H1            -23.7718000961       -0.0004046239      -27.0813114807  TIP3      4445            0.0000000000
     35587      4637  TIP3      H2            -24.1354357198        1.0163270300      -26.0358330562  TIP3      4445            0.0000000000
     35588      4638  TIP3      OH2           -19.4914658226      -16.7926896320      -27.7135488130  TIP3      4446            0.0000000000
     35589      4638  TIP3      H1            -20.3275923730      -16.5123432670      -28.1202938340  TIP3      4446            0.0000000000
     35590      4638  TIP3      H2            -19.3180016207      -17.6124226282      -28.2315139190  TIP3      4446            0.0000000000
     35591      4639  TIP3      OH2           -33.6684623627        1.1596656317      -28.9897063961  TIP3      4447            0.0000000000
     35592      4639  TIP3      H1            -34.4155378567        1.6320905767      -29.4091257548  TIP3      4447            0.0000000000
     35593      4639  TIP3      H2            -34.0397255646        0.9290561061      -28.1320589060  TIP3      4447            0.0000000000
     35594      4640  TIP3      OH2           -31.2273809166        0.7215989909      -29.9479155404  TIP3      4448            0.0000000000
     35595      4640  TIP3      H1            -32.1255360062        0.8464271416      -29.5660850933  TIP3      4448            0.0000000000
     35596      4640  TIP3      H2            -31.2831824793        1.3056315733      -30.7259487162  TIP3      4448            0.0000000000
     35597      4641  TIP3      OH2           -26.5320117812        0.6289284733      -30.7861677978  TIP3      4449            0.0000000000
     35598      4641  TIP3      H1            -26.9918384142        1.1843071721      -31.4327024457  TIP3      4449            0.0000000000
     35599      4641  TIP3      H2            -26.3944364095        1.2603430551      -30.0455332973  TIP3      4449            0.0000000000
     35600      4642  TIP3      OH2           -24.2401859796       -0.5504619866      -29.7659587628  TIP3      4450            0.0000000000
     35601      4642  TIP3      H1            -25.0973997155       -0.2841256756      -30.1381870727  TIP3      4450            0.0000000000
     35602      4642  TIP3      H2            -23.7616374110        0.2903240023      -29.8719571623  TIP3      4450            0.0000000000
     35603      4643  TIP3      OH2           -21.6629448349        1.0097282528      -29.5258068578  TIP3      4451            0.0000000000
     35604      4643  TIP3      H1            -21.7320963209        1.9683908178      -29.7596742198  TIP3      4451            0.0000000000
     35605      4643  TIP3      H2            -21.4368140101        0.6385112095      -30.3997729966  TIP3      4451            0.0000000000
     35606      4644  TIP3      OH2           -34.3216404862       -0.2273601271      -32.0952657844  TIP3      4452            0.0000000000
     35607      4644  TIP3      H1            -34.2727138337       -0.6749251058      -31.2250625217  TIP3      4452            0.0000000000
     35608      4644  TIP3      H2            -33.4846969517       -0.5691444503      -32.4851557113  TIP3      4452            0.0000000000
     35609      4645  TIP3      OH2           -32.1872693841       -1.4870711603      -33.4430634620  TIP3      4453            0.0000000000
     35610      4645  TIP3      H1            -32.3593919694       -2.4230713838      -33.2089961607  TIP3      4453            0.0000000000
     35611      4645  TIP3      H2            -31.3326909493       -1.3584463074      -32.9738270820  TIP3      4453            0.0000000000
     35612      4646  TIP3      OH2           -29.5810937960       -1.0168237350      -32.5660796089  TIP3      4454            0.0000000000
     35613      4646  TIP3      H1            -29.4121572587       -1.9380051424      -32.8318327257  TIP3      4454            0.0000000000
     35614      4646  TIP3      H2            -29.5220810568       -1.0727078321      -31.6008824972  TIP3      4454            0.0000000000
     35615      4647  TIP3      OH2           -26.0976499630      -15.3392632266      -33.3928744266  TIP3      4455            0.0000000000
     35616      4647  TIP3      H1            -26.7797793874      -15.9963414287      -33.1535918066  TIP3      4455            0.0000000000
     35617      4647  TIP3      H2            -25.5723142231      -15.8800066747      -34.0047386727  TIP3      4455            0.0000000000
     35618      4648  TIP3      OH2           -20.9725655983      -17.3069193884      -33.3398676853  TIP3      4456            0.0000000000
     35619      4648  TIP3      H1            -20.3644264034      -16.7214476321      -33.8580345514  TIP3      4456            0.0000000000
     35620      4648  TIP3      H2            -21.8664508416      -16.9797866019      -33.5818156964  TIP3      4456            0.0000000000
     35621      4649  TIP3      OH2           -19.3069915863      -16.0793595054      -35.0639847776  TIP3      4457            0.0000000000
     35622      4649  TIP3      H1            -18.6217354266      -16.6508475354      -35.4871579112  TIP3      4457            0.0000000000
     35623      4649  TIP3      H2            -18.8066217770      -15.2372380921      -34.9663683565  TIP3      4457            0.0000000000
     35624      4650  TIP3      OH2           -33.7462020763      -16.7483845547      -35.5462738324  TIP3      4458            0.0000000000
     35625      4650  TIP3      H1            -34.5216325700      -16.9578051549      -36.1078579505  TIP3      4458            0.0000000000
     35626      4650  TIP3      H2            -33.2466565157      -17.5843390519      -35.6328070957  TIP3      4458            0.0000000000
     35627      4651  TIP3      OH2           -34.9190580701      -17.0185779258      -39.8034347213  TIP3      4459            0.0000000000
     35628      4651  TIP3      H1            -34.4801125902      -16.3690287576      -40.3891269646  TIP3      4459            0.0000000000
     35629      4651  TIP3      H2            -35.5328165049      -16.4296909761      -39.3270244048  TIP3      4459            0.0000000000
     35630      4652  TIP3      OH2           -29.3009877183      -16.7489620054      -35.7635142409  TIP3      4460            0.0000000000
     35631      4652  TIP3      H1            -28.3582710641      -16.5098025859      -35.8584346989  TIP3      4460            0.0000000000
     35632      4652  TIP3      H2            -29.2833342203      -17.0651993285      -34.8595795523  TIP3      4460            0.0000000000
     35633      4653  TIP3      OH2           -23.5347279187      -16.7787597080      -34.1686211276  TIP3      4461            0.0000000000
     35634      4653  TIP3      H1            -23.6313865308      -16.7057308210      -35.1225547472  TIP3      4461            0.0000000000
     35635      4653  TIP3      H2            -23.9345084031      -17.6820533177      -34.0009245232  TIP3      4461            0.0000000000
     35636      4654  TIP3      OH2           -22.2872534254      -16.7762187503      -38.4913989052  TIP3      4462            0.0000000000
     35637      4654  TIP3      H1            -23.0414203478      -16.1858197304      -38.6357680634  TIP3      4462            0.0000000000
     35638      4654  TIP3      H2            -22.7335603069      -17.6277540521      -38.2607703888  TIP3      4462            0.0000000000
     35639      4655  TIP3      OH2           -35.0325020905       -1.0121112838      -38.8136490669  TIP3      4463            0.0000000000
     35640      4655  TIP3      H1            -35.6706686252       -1.0425770217      -39.5455822027  TIP3      4463            0.0000000000
     35641      4655  TIP3      H2            -35.0374956017       -0.0559638632      -38.6885807062  TIP3      4463            0.0000000000
     35642      4656  TIP3      OH2           -33.1601094293      -15.0881543074      -41.2958829108  TIP3      4464            0.0000000000
     35643      4656  TIP3      H1            -32.6315570534      -15.6594687490      -41.8635595219  TIP3      4464            0.0000000000
     35644      4656  TIP3      H2            -32.4728071369      -14.7108522305      -40.7247335877  TIP3      4464            0.0000000000
     35645      4657  TIP3      OH2           -28.1165909883      -14.7871280652      -38.9351370584  TIP3      4465            0.0000000000
     35646      4657  TIP3      H1            -27.8568428329      -15.3820934972      -38.2032085139  TIP3      4465            0.0000000000
     35647      4657  TIP3      H2            -28.0552182852      -13.9298968071      -38.4545792242  TIP3      4465            0.0000000000
     35648      4658  TIP3      OH2           -26.2353814414        0.5286292805      -40.4490025678  TIP3      4466            0.0000000000
     35649      4658  TIP3      H1            -25.2726306382        0.5445832306      -40.6221038422  TIP3      4466            0.0000000000
     35650      4658  TIP3      H2            -26.3984221267       -0.1784986067      -41.1225484912  TIP3      4466            0.0000000000
     35651      4659  TIP3      OH2           -19.5055297199       -0.2284693280      -37.7701893791  TIP3      4467            0.0000000000
     35652      4659  TIP3      H1            -19.6705293346       -1.0054444763      -38.3505404815  TIP3      4467            0.0000000000
     35653      4659  TIP3      H2            -19.5412798741        0.5103264011      -38.4025429813  TIP3      4467            0.0000000000
     35654      4660  TIP3      OH2           -33.8837882116      -16.1864393753      -26.0975270286  TIP3      4468            0.0000000000
     35655      4660  TIP3      H1            -34.2007708888      -17.0129681301      -25.6907225594  TIP3      4468            0.0000000000
     35656      4660  TIP3      H2            -32.9572800504      -16.2251104392      -25.7643662372  TIP3      4468            0.0000000000
     35657      4661  TIP3      OH2           -31.8675803369      -16.8850728473      -24.5571092692  TIP3      4469            0.0000000000
     35658      4661  TIP3      H1            -30.9552996373      -17.1872728904      -24.7174017228  TIP3      4469            0.0000000000
     35659      4661  TIP3      H2            -32.2324561759      -17.6194561305      -24.0265524541  TIP3      4469            0.0000000000
     35660      4662  TIP3      OH2           -33.1705351379       -0.0314763074      -41.8749734325  TIP3      4470            0.0000000000
     35661      4662  TIP3      H1            -33.5142265576        0.1974636420      -41.0021900617  TIP3      4470            0.0000000000
     35662      4662  TIP3      H2            -32.4510382376       -0.6311326007      -41.7090933888  TIP3      4470            0.0000000000
     35663      4663  TIP3      OH2           -20.2413542328       -1.4775061520      -25.6804184341  TIP3      4471            0.0000000000
     35664      4663  TIP3      H1            -21.0446010949       -1.6195950632      -26.2226436361  TIP3      4471            0.0000000000
     35665      4663  TIP3      H2            -20.3453321052       -0.5283404687      -25.4846246243  TIP3      4471            0.0000000000
     35666      4664  TIP3      OH2            -5.8020296201       -7.6040093921      -35.7066296083  TIP3      4472            0.0000000000
     35667      4664  TIP3      H1             -5.8069772191       -6.6251581817      -35.7536659466  TIP3      4472            0.0000000000
     35668      4664  TIP3      H2             -6.5242131551       -7.8421208634      -36.3120438240  TIP3      4472            0.0000000000
     35669      4665  TIP3      OH2            -6.9465696821       -8.3466309779      -32.2084068737  TIP3      4473            0.0000000000
     35670      4665  TIP3      H1             -6.9575208937       -9.0001594947      -31.4953540966  TIP3      4473            0.0000000000
     35671      4665  TIP3      H2             -7.2834563862       -8.8494632599      -32.9659761606  TIP3      4473            0.0000000000
     35672      4666  TIP3      OH2           -14.5887958313       -8.6770720402      -30.6553635521  TIP3      4474            0.0000000000
     35673      4666  TIP3      H1            -14.5051137265       -9.3615314824      -29.9580714309  TIP3      4474            0.0000000000
     35674      4666  TIP3      H2            -13.8405678122       -8.1033129211      -30.4367884238  TIP3      4474            0.0000000000
     35675      4667  TIP3      OH2            -3.2507676132       -5.3998963839      -33.9287650467  TIP3      4475            0.0000000000
     35676      4667  TIP3      H1             -3.6739073884       -6.1143099393      -33.4434554324  TIP3      4475            0.0000000000
     35677      4667  TIP3      H2             -3.2324565513       -4.6910567341      -33.2591835190  TIP3      4475            0.0000000000
     35678      4668  TIP3      OH2           -13.6607930193       -4.2295584280      -32.1508754733  TIP3      4476            0.0000000000
     35679      4668  TIP3      H1            -13.9759031677       -5.0955804525      -32.4722610807  TIP3      4476            0.0000000000
     35680      4668  TIP3      H2            -12.7056123526       -4.4156328407      -32.1012832415  TIP3      4476            0.0000000000
     35681      4669  TIP3      OH2           -17.0199546047      -10.6659923777      -36.6722322221  TIP3      4477            0.0000000000
     35682      4669  TIP3      H1            -17.4604815059       -9.7954887211      -36.7237741531  TIP3      4477            0.0000000000
     35683      4669  TIP3      H2            -17.5873813489      -11.2021766983      -37.2426901443  TIP3      4477            0.0000000000
     35684      4670  TIP3      OH2           -16.3178815712       -8.4612611981      -34.5227825308  TIP3      4478            0.0000000000
     35685      4670  TIP3      H1            -16.0407587508       -9.2733118462      -34.0653957211  TIP3      4478            0.0000000000
     35686      4670  TIP3      H2            -15.6167053839       -8.3433493597      -35.1809370988  TIP3      4478            0.0000000000
     35687      4671  TIP3      OH2            -6.1366663208       -0.2371352475      -33.7052000838  TIP3      4479            0.0000000000
     35688      4671  TIP3      H1             -5.4902263649       -0.9330856787      -33.9826266197  TIP3      4479            0.0000000000
     35689      4671  TIP3      H2             -6.3458935730       -0.5650627343      -32.8279723325  TIP3      4479            0.0000000000
     35690      4672  TIP3      OH2            -8.5659554267       -5.9450160132      -31.7481428460  TIP3      4480            0.0000000000
     35691      4672  TIP3      H1             -8.2274443542       -6.5785590925      -32.3993292285  TIP3      4480            0.0000000000
     35692      4672  TIP3      H2             -7.7624866057       -5.7919528437      -31.2218658658  TIP3      4480            0.0000000000
     35693      4673  TIP3      OH2             0.0797000599      -14.3110380007      -31.0031253760  TIP3      4481            0.0000000000
     35694      4673  TIP3      H1              0.1970781376      -13.7022396776      -30.2398507498  TIP3      4481            0.0000000000
     35695      4673  TIP3      H2              0.5922386970      -13.8350837040      -31.6668947849  TIP3      4481            0.0000000000
     35696      4674  TIP3      OH2            -5.4001221367      -11.4806049755      -31.4307634416  TIP3      4482            0.0000000000
     35697      4674  TIP3      H1             -5.2402889439      -12.4414441336      -31.4284390928  TIP3      4482            0.0000000000
     35698      4674  TIP3      H2             -5.5027100470      -11.3376242484      -32.3916661784  TIP3      4482            0.0000000000
     35699      4675  TIP3      OH2           -12.2833726649      -13.3922891379      -34.2080327069  TIP3      4483            0.0000000000
     35700      4675  TIP3      H1            -12.1818624291      -12.5546240706      -34.6960156351  TIP3      4483            0.0000000000
     35701      4675  TIP3      H2            -12.6866744468      -13.9651926144      -34.8960613552  TIP3      4483            0.0000000000
     35702      4676  TIP3      OH2            -4.5457181009      -13.3098630304      -35.8416088956  TIP3      4484            0.0000000000
     35703      4676  TIP3      H1             -3.8914191056      -13.6221268340      -35.1729824790  TIP3      4484            0.0000000000
     35704      4676  TIP3      H2             -3.9836720537      -12.7412657552      -36.3928702641  TIP3      4484            0.0000000000
     35705      4677  TIP3      OH2           -15.6585486348      -10.9841545223      -33.4721772485  TIP3      4485            0.0000000000
     35706      4677  TIP3      H1            -14.9874626174      -11.5319750839      -33.0226217795  TIP3      4485            0.0000000000
     35707      4677  TIP3      H2            -15.5602640362      -11.2952682957      -34.3852133701  TIP3      4485            0.0000000000
     35708      4678  TIP3      OH2           -10.4992563520       -9.4271017477      -34.1647655446  TIP3      4486            0.0000000000
     35709      4678  TIP3      H1             -9.8335653464      -10.0072940053      -33.7583465441  TIP3      4486            0.0000000000
     35710      4678  TIP3      H2            -11.0206639887      -10.0863867396      -34.6634257241  TIP3      4486            0.0000000000
     35711      4679  TIP3      OH2             0.4905182961      -12.8836773654      -28.7205725517  TIP3      4487            0.0000000000
     35712      4679  TIP3      H1             -0.1335408245      -12.1315408815      -28.8476299278  TIP3      4487            0.0000000000
     35713      4679  TIP3      H2              0.4762468728      -13.0080514596      -27.7678989784  TIP3      4487            0.0000000000
     35714      4680  TIP3      OH2           -13.3831961156      -14.4936540743      -30.1667059543  TIP3      4488            0.0000000000
     35715      4680  TIP3      H1            -13.6604222084      -13.9244983034      -30.9150502099  TIP3      4488            0.0000000000
     35716      4680  TIP3      H2            -14.0611289005      -14.2614871220      -29.4870660883  TIP3      4488            0.0000000000
     35717      4681  TIP3      OH2            -6.0885842941       -5.0162970324      -36.6202706784  TIP3      4489            0.0000000000
     35718      4681  TIP3      H1             -6.3689511918       -5.2940431263      -37.5042033464  TIP3      4489            0.0000000000
     35719      4681  TIP3      H2             -6.3919863933       -4.0828489401      -36.5757513018  TIP3      4489            0.0000000000
     35720      4682  TIP3      OH2           -10.8643663367       -6.8500073354      -29.9383280328  TIP3      4490            0.0000000000
     35721      4682  TIP3      H1            -11.5697172069       -6.2083168559      -29.7074498182  TIP3      4490            0.0000000000
     35722      4682  TIP3      H2            -10.1549673827       -6.2496046642      -30.2156129279  TIP3      4490            0.0000000000
     35723      4683  TIP3      OH2            -2.7529616087      -13.9619752080      -33.8506163119  TIP3      4491            0.0000000000
     35724      4683  TIP3      H1             -2.9742285057      -14.7265796775      -33.3104195247  TIP3      4491            0.0000000000
     35725      4683  TIP3      H2             -2.0872145333      -13.5141593999      -33.3028089543  TIP3      4491            0.0000000000
     35726      4684  TIP3      OH2           -13.8159448954      -12.6330656251      -32.1414619752  TIP3      4492            0.0000000000
     35727      4684  TIP3      H1            -13.1848409887      -11.9487395520      -31.8232768191  TIP3      4492            0.0000000000
     35728      4684  TIP3      H2            -13.2947044766      -13.0505968367      -32.8721050025  TIP3      4492            0.0000000000
     35729      4685  TIP3      OH2           -12.4164118126       -4.8466400624      -29.0972658792  TIP3      4493            0.0000000000
     35730      4685  TIP3      H1            -12.4659199650       -3.9372969006      -29.4436580712  TIP3      4493            0.0000000000
     35731      4685  TIP3      H2            -13.3066041055       -4.9236796406      -28.6718602350  TIP3      4493            0.0000000000
     35732      4686  TIP3      OH2           -16.3682545977       -5.2431447595      -38.3370878532  TIP3      4494            0.0000000000
     35733      4686  TIP3      H1            -16.5623883642       -4.8721329732      -39.2164836959  TIP3      4494            0.0000000000
     35734      4686  TIP3      H2            -16.2536791195       -4.4152010240      -37.7968037592  TIP3      4494            0.0000000000
     35735      4687  TIP3      OH2            -2.7237679182       -3.5652210148      -31.5595107752  TIP3      4495            0.0000000000
     35736      4687  TIP3      H1             -3.6910549415       -3.4586603294      -31.4350757110  TIP3      4495            0.0000000000
     35737      4687  TIP3      H2             -2.4549562138       -2.6470840085      -31.7545461610  TIP3      4495            0.0000000000
     35738      4688  TIP3      OH2            -2.4088239683      -15.2777807005      -30.1694341312  TIP3      4496            0.0000000000
     35739      4688  TIP3      H1             -3.1361899754      -14.6475662705      -30.2485226113  TIP3      4496            0.0000000000
     35740      4688  TIP3      H2             -1.7043181315      -14.8472638605      -30.6856013895  TIP3      4496            0.0000000000
     35741      4689  TIP3      OH2            -9.4312000143      -17.1615810203      -32.7021975595  TIP3      4497            0.0000000000
     35742      4689  TIP3      H1             -9.5677379069      -18.1260254084      -32.7738886903  TIP3      4497            0.0000000000
     35743      4689  TIP3      H2            -10.3103937183      -16.8551430666      -32.4007267654  TIP3      4497            0.0000000000
     35744      4690  TIP3      OH2            -4.4634658422       -1.7856334972      -34.9610259056  TIP3      4498            0.0000000000
     35745      4690  TIP3      H1             -4.0377509410       -2.5010136816      -35.4748830224  TIP3      4498            0.0000000000
     35746      4690  TIP3      H2             -4.0311791584       -0.9970603788      -35.3484580853  TIP3      4498            0.0000000000
     35747      4691  TIP3      OH2            -3.2585390384       -3.8547072659      -36.4581884595  TIP3      4499            0.0000000000
     35748      4691  TIP3      H1             -3.5514644707       -4.5493331135      -37.0730298676  TIP3      4499            0.0000000000
     35749      4691  TIP3      H2             -3.2247309212       -4.3452901222      -35.6158155892  TIP3      4499            0.0000000000
     35750      4692  TIP3      OH2            -1.6391978404       -5.2592548551      -27.9619236328  TIP3      4500            0.0000000000
     35751      4692  TIP3      H1             -1.4873187527       -5.9109188468      -28.6815655752  TIP3      4500            0.0000000000
     35752      4692  TIP3      H2             -1.4338237343       -4.4120095468      -28.3931268790  TIP3      4500            0.0000000000
     35753      4693  TIP3      OH2            -7.1496273227       -8.3598090262      -38.2053350312  TIP3      4501            0.0000000000
     35754      4693  TIP3      H1             -7.8411471038       -7.7849093725      -38.5927765946  TIP3      4501            0.0000000000
     35755      4693  TIP3      H2             -6.4375426289       -8.2765889745      -38.8667443244  TIP3      4501            0.0000000000
     35756      4694  TIP3      OH2            -7.1021990135       -9.8377993829      -41.1160733354  TIP3      4502            0.0000000000
     35757      4694  TIP3      H1             -6.3657801826       -9.8343367597      -40.4843105733  TIP3      4502            0.0000000000
     35758      4694  TIP3      H2             -6.7753961204      -10.4760757808      -41.7572798151  TIP3      4502            0.0000000000
     35759      4695  TIP3      OH2             0.2527636493       -8.9639179930      -29.9037801166  TIP3      4503            0.0000000000
     35760      4695  TIP3      H1             -0.4066186259       -8.2381082588      -29.8542301582  TIP3      4503            0.0000000000
     35761      4695  TIP3      H2              0.7327621187       -8.7197046221      -30.7156888237  TIP3      4503            0.0000000000
     35762      4696  TIP3      OH2            -3.7041073817       -8.1502320982      -37.2540914857  TIP3      4504            0.0000000000
     35763      4696  TIP3      H1             -4.4487086465       -7.9110082842      -36.6526919563  TIP3      4504            0.0000000000
     35764      4696  TIP3      H2             -3.2300249977       -8.8333660468      -36.7459714284  TIP3      4504            0.0000000000
     35765      4697  TIP3      OH2            -3.7748504350       -9.9946427085      -28.1731838097  TIP3      4505            0.0000000000
     35766      4697  TIP3      H1             -3.7512318519       -9.1879461675      -27.6241067724  TIP3      4505            0.0000000000
     35767      4697  TIP3      H2             -4.4082664833       -9.6899463873      -28.8517841738  TIP3      4505            0.0000000000
     35768      4698  TIP3      OH2           -12.0740726315       -7.5047840989      -35.3540391799  TIP3      4506            0.0000000000
     35769      4698  TIP3      H1            -12.4097522061       -7.8790783552      -36.2025045459  TIP3      4506            0.0000000000
     35770      4698  TIP3      H2            -11.4636504014       -8.2020370149      -35.0238825406  TIP3      4506            0.0000000000
     35771      4699  TIP3      OH2           -10.7596697287       -4.1122080214      -32.6747650982  TIP3      4507            0.0000000000
     35772      4699  TIP3      H1            -10.7668572931       -4.6479949080      -33.4764168399  TIP3      4507            0.0000000000
     35773      4699  TIP3      H2             -9.9786512796       -4.4711930348      -32.2150191201  TIP3      4507            0.0000000000
     35774      4700  TIP3      OH2           -11.7506899321       -8.7517269784      -31.6987289738  TIP3      4508            0.0000000000
     35775      4700  TIP3      H1            -11.1969949557       -8.6463679659      -32.4971203309  TIP3      4508            0.0000000000
     35776      4700  TIP3      H2            -11.3665781247       -8.0867930003      -31.0851804875  TIP3      4508            0.0000000000
     35777      4701  TIP3      OH2            -5.3446160394       -3.1824651549      -30.9933248947  TIP3      4509            0.0000000000
     35778      4701  TIP3      H1             -5.6299846378       -2.5468891534      -30.3317620675  TIP3      4509            0.0000000000
     35779      4701  TIP3      H2             -5.5961550250       -4.0363868830      -30.5667789813  TIP3      4509            0.0000000000
     35780      4702  TIP3      OH2           -10.8182071827       -4.3310853221      -26.9598213761  TIP3      4510            0.0000000000
     35781      4702  TIP3      H1            -11.2053260188       -3.5487166803      -26.5244671370  TIP3      4510            0.0000000000
     35782      4702  TIP3      H2            -11.4609912919       -4.5109590810      -27.6898907685  TIP3      4510            0.0000000000
     35783      4703  TIP3      OH2            -4.8194845903       -8.9799527429      -39.5946313434  TIP3      4511            0.0000000000
     35784      4703  TIP3      H1             -4.2726676230       -8.7786942611      -38.7966816341  TIP3      4511            0.0000000000
     35785      4703  TIP3      H2             -4.4125837268       -8.4382133824      -40.2988098822  TIP3      4511            0.0000000000
     35786      4704  TIP3      OH2           -13.8697043956       -8.1713058087      -27.8213814654  TIP3      4512            0.0000000000
     35787      4704  TIP3      H1            -13.8242401000       -7.4946027729      -27.1194906148  TIP3      4512            0.0000000000
     35788      4704  TIP3      H2            -14.7943153484       -8.0584293840      -28.0953719309  TIP3      4512            0.0000000000
     35789      4705  TIP3      OH2            -7.0900515994       -2.2203299071      -36.1445913589  TIP3      4513            0.0000000000
     35790      4705  TIP3      H1             -6.6770041129       -1.9305203912      -35.3213532306  TIP3      4513            0.0000000000
     35791      4705  TIP3      H2             -7.6803268336       -1.4975551763      -36.3707308568  TIP3      4513            0.0000000000
     35792      4706  TIP3      OH2           -12.5555857587       -2.3148050411      -26.2530712920  TIP3      4514            0.0000000000
     35793      4706  TIP3      H1            -12.6053120439       -2.3834202263      -27.2220031730  TIP3      4514            0.0000000000
     35794      4706  TIP3      H2            -13.4969473908       -2.4014131272      -26.0052783929  TIP3      4514            0.0000000000
     35795      4707  TIP3      OH2            -1.1090713198      -17.2278557852      -39.7115009295  TIP3      4515            0.0000000000
     35796      4707  TIP3      H1             -2.0577448758      -17.1109064582      -39.4612620847  TIP3      4515            0.0000000000
     35797      4707  TIP3      H2             -0.8833852162      -16.3707482588      -40.1119575149  TIP3      4515            0.0000000000
     35798      4708  TIP3      OH2           -13.1104412892       -8.4778512496      -37.7482041495  TIP3      4516            0.0000000000
     35799      4708  TIP3      H1            -13.3939194272       -7.6972618667      -38.2683875496  TIP3      4516            0.0000000000
     35800      4708  TIP3      H2            -13.7696816951       -9.1366459010      -37.9740060178  TIP3      4516            0.0000000000
     35801      4709  TIP3      OH2             0.0018193831       -2.8956746988      -41.3380270210  TIP3      4517            0.0000000000
     35802      4709  TIP3      H1              0.1287621640       -1.9367176641      -41.2152202731  TIP3      4517            0.0000000000
     35803      4709  TIP3      H2              0.9329398754       -3.1712621755      -41.4081713297  TIP3      4517            0.0000000000
     35804      4710  TIP3      OH2           -17.0178580275       -6.0488684620      -28.8691711079  TIP3      4518            0.0000000000
     35805      4710  TIP3      H1            -17.4818524204       -6.1299509752      -29.7185016489  TIP3      4518            0.0000000000
     35806      4710  TIP3      H2            -16.9539517577       -6.9944746904      -28.6402721921  TIP3      4518            0.0000000000
     35807      4711  TIP3      OH2           -17.2627443454       -3.3253466455      -32.0356208647  TIP3      4519            0.0000000000
     35808      4711  TIP3      H1            -16.3047044102       -3.4137169009      -32.1044738100  TIP3      4519            0.0000000000
     35809      4711  TIP3      H2            -17.3471803387       -2.4932513185      -31.5538185748  TIP3      4519            0.0000000000
     35810      4712  TIP3      OH2             0.9754602308       -2.6066261421      -26.4048920819  TIP3      4520            0.0000000000
     35811      4712  TIP3      H1              0.8563102394       -3.5687479384      -26.4017655204  TIP3      4520            0.0000000000
     35812      4712  TIP3      H2              0.1160279209       -2.3474669435      -25.9821159856  TIP3      4520            0.0000000000
     35813      4713  TIP3      OH2            -8.0653383025       -3.0612297292      -27.5332166955  TIP3      4521            0.0000000000
     35814      4713  TIP3      H1             -8.0140312397       -2.2307906450      -27.0118928717  TIP3      4521            0.0000000000
     35815      4713  TIP3      H2             -8.9317591080       -3.4255800481      -27.2744116165  TIP3      4521            0.0000000000
     35816      4714  TIP3      OH2            -7.6117418649        0.6595990214      -37.7335432234  TIP3      4522            0.0000000000
     35817      4714  TIP3      H1             -7.7469517337        0.5632898856      -38.6957636960  TIP3      4522            0.0000000000
     35818      4714  TIP3      H2             -7.6972772459        1.5663038856      -37.4486107318  TIP3      4522            0.0000000000
     35819      4715  TIP3      OH2           -13.5838716895       -0.3975785623      -35.5826385509  TIP3      4523            0.0000000000
     35820      4715  TIP3      H1            -13.7024311322       -0.9024440305      -34.7621764227  TIP3      4523            0.0000000000
     35821      4715  TIP3      H2            -14.4616170149       -0.6373148593      -35.9743426458  TIP3      4523            0.0000000000
     35822      4716  TIP3      OH2            -4.6158763027       -0.1220489214      -40.7471476092  TIP3      4524            0.0000000000
     35823      4716  TIP3      H1             -4.1377113611       -0.8752954253      -41.1700271684  TIP3      4524            0.0000000000
     35824      4716  TIP3      H2             -4.5123925744       -0.3832146807      -39.8140397802  TIP3      4524            0.0000000000
     35825      4717  TIP3      OH2            -4.8892214487       -0.1426753012      -37.9389893494  TIP3      4525            0.0000000000
     35826      4717  TIP3      H1             -5.8481413402       -0.1462472592      -37.7659514594  TIP3      4525            0.0000000000
     35827      4717  TIP3      H2             -4.6149616078       -0.9110548382      -37.4043161209  TIP3      4525            0.0000000000
     35828      4718  TIP3      OH2            -1.8702538244      -11.1334437182      -25.9439134869  TIP3      4526            0.0000000000
     35829      4718  TIP3      H1             -2.3613905518      -10.6768750021      -26.6440598985  TIP3      4526            0.0000000000
     35830      4718  TIP3      H2             -1.8943157469      -12.0638460476      -26.2177764811  TIP3      4526            0.0000000000
     35831      4719  TIP3      OH2           -14.7394523971       -4.7323747350      -27.9014125529  TIP3      4527            0.0000000000
     35832      4719  TIP3      H1            -14.5348803656       -5.1013440841      -27.0211869818  TIP3      4527            0.0000000000
     35833      4719  TIP3      H2            -15.6095425775       -5.1216901889      -28.1302202560  TIP3      4527            0.0000000000
     35834      4720  TIP3      OH2           -12.0625222814      -16.2613580732      -31.9496096538  TIP3      4528            0.0000000000
     35835      4720  TIP3      H1            -12.9650772762      -16.3798511111      -32.3202570288  TIP3      4528            0.0000000000
     35836      4720  TIP3      H2            -12.1873220797      -15.4252401402      -31.4720707591  TIP3      4528            0.0000000000
     35837      4721  TIP3      OH2            -7.4174002136      -16.5907025639      -28.5861525111  TIP3      4529            0.0000000000
     35838      4721  TIP3      H1             -7.0278895951      -17.0085724335      -27.7946960421  TIP3      4529            0.0000000000
     35839      4721  TIP3      H2             -8.3899102973      -16.7128337731      -28.4484213181  TIP3      4529            0.0000000000
     35840      4722  TIP3      OH2            -4.1598604079      -12.7625509175      -27.7251667069  TIP3      4530            0.0000000000
     35841      4722  TIP3      H1             -4.6904719932      -12.9590740566      -26.9139886817  TIP3      4530            0.0000000000
     35842      4722  TIP3      H2             -4.2944982263      -11.8187824084      -27.9129513478  TIP3      4530            0.0000000000
     35843      4723  TIP3      OH2            -3.3071890636       -7.8773164025      -41.7884258456  TIP3      4531            0.0000000000
     35844      4723  TIP3      H1             -3.2920249763       -8.0638371741      -42.7425206111  TIP3      4531            0.0000000000
     35845      4723  TIP3      H2             -2.4353272177       -7.4561952158      -41.6735607870  TIP3      4531            0.0000000000
     35846      4724  TIP3      OH2            -7.7700413110      -14.0181953552      -41.2482923594  TIP3      4532            0.0000000000
     35847      4724  TIP3      H1             -8.0862236096      -14.0649412800      -40.3279336503  TIP3      4532            0.0000000000
     35848      4724  TIP3      H2             -8.0482864348      -14.8963404653      -41.5368125721  TIP3      4532            0.0000000000
     35849      4725  TIP3      OH2           -11.9558710902      -11.2874409269      -30.7043631627  TIP3      4533            0.0000000000
     35850      4725  TIP3      H1            -12.6944610616      -11.3013153424      -30.0678618127  TIP3      4533            0.0000000000
     35851      4725  TIP3      H2            -12.0034660760      -10.3754795460      -31.0714638031  TIP3      4533            0.0000000000
     35852      4726  TIP3      OH2           -12.0008330789      -11.1601712124      -35.8402583763  TIP3      4534            0.0000000000
     35853      4726  TIP3      H1            -12.9351571145      -11.4210570302      -35.9730104352  TIP3      4534            0.0000000000
     35854      4726  TIP3      H2            -11.6178370835      -11.4579059062      -36.6888522187  TIP3      4534            0.0000000000
     35855      4727  TIP3      OH2            -6.4744861096      -10.6759779316      -37.0900585458  TIP3      4535            0.0000000000
     35856      4727  TIP3      H1             -6.8816016753       -9.8396684380      -37.4095682147  TIP3      4535            0.0000000000
     35857      4727  TIP3      H2             -5.7817159139      -10.8236839902      -37.7610645226  TIP3      4535            0.0000000000
     35858      4728  TIP3      OH2            -7.4000128179      -10.4698813580      -25.6572964244  TIP3      4536            0.0000000000
     35859      4728  TIP3      H1             -7.9502478106      -11.2205383481      -25.3221473361  TIP3      4536            0.0000000000
     35860      4728  TIP3      H2             -6.5816140288      -10.5756473000      -25.1406120981  TIP3      4536            0.0000000000
     35861      4729  TIP3      OH2            -5.4443533266      -11.1801012186      -34.2221373132  TIP3      4537            0.0000000000
     35862      4729  TIP3      H1             -5.7195715731      -10.6151667683      -34.9648051076  TIP3      4537            0.0000000000
     35863      4729  TIP3      H2             -5.3428382500      -12.0280532144      -34.6948683952  TIP3      4537            0.0000000000
     35864      4730  TIP3      OH2           -14.3307070189      -11.0243437548      -29.0094480058  TIP3      4538            0.0000000000
     35865      4730  TIP3      H1            -14.2609122076      -10.6233814011      -28.1282653037  TIP3      4538            0.0000000000
     35866      4730  TIP3      H2            -14.7768568360      -11.8642775224      -28.8141688164  TIP3      4538            0.0000000000
     35867      4731  TIP3      OH2           -10.7896567550      -13.4169732478      -41.8457466469  TIP3      4539            0.0000000000
     35868      4731  TIP3      H1            -11.3360060751      -14.0456465043      -41.3306784870  TIP3      4539            0.0000000000
     35869      4731  TIP3      H2            -11.4029660041      -13.0592470979      -42.4900879289  TIP3      4539            0.0000000000
     35870      4732  TIP3      OH2           -17.6773560438      -13.9166070806      -35.0409457269  TIP3      4540            0.0000000000
     35871      4732  TIP3      H1            -16.9985262462      -13.9546073004      -34.3376094965  TIP3      4540            0.0000000000
     35872      4732  TIP3      H2            -17.2260194080      -14.2998511022      -35.8160858933  TIP3      4540            0.0000000000
     35873      4733  TIP3      OH2           -16.3824887616      -13.1926365055      -39.6675928673  TIP3      4541            0.0000000000
     35874      4733  TIP3      H1            -15.8965629884      -12.5982280795      -40.2743349145  TIP3      4541            0.0000000000
     35875      4733  TIP3      H2            -17.0766382978      -12.5748847191      -39.3508039382  TIP3      4541            0.0000000000
     35876      4734  TIP3      OH2            -6.2446723907       -9.5874446518      -29.6607486899  TIP3      4542            0.0000000000
     35877      4734  TIP3      H1             -5.8678466435      -10.2706617142      -30.2510273918  TIP3      4542            0.0000000000
     35878      4734  TIP3      H2             -6.7048213580      -10.1189988349      -28.9871086469  TIP3      4542            0.0000000000
     35879      4735  TIP3      OH2            -9.4398778917      -13.6154195934      -34.8333204048  TIP3      4543            0.0000000000
     35880      4735  TIP3      H1            -10.3734826946      -13.6087488335      -34.5392419780  TIP3      4543            0.0000000000
     35881      4735  TIP3      H2             -8.9573710407      -13.7733995047      -34.0085114585  TIP3      4543            0.0000000000
     35882      4736  TIP3      OH2           -14.6315291864      -12.0594729825      -35.9629598478  TIP3      4544            0.0000000000
     35883      4736  TIP3      H1            -15.5174313032      -11.9098459647      -36.3524254806  TIP3      4544            0.0000000000
     35884      4736  TIP3      H2            -14.3451436230      -12.8944147512      -36.3684219636  TIP3      4544            0.0000000000
     35885      4737  TIP3      OH2           -10.9944265784      -11.9995354998      -38.3309032990  TIP3      4545            0.0000000000
     35886      4737  TIP3      H1            -10.0357591782      -11.9000315716      -38.1645539007  TIP3      4545            0.0000000000
     35887      4737  TIP3      H2            -11.2203493871      -11.3479536080      -39.0161393879  TIP3      4545            0.0000000000
     35888      4738  TIP3      OH2            -5.0348936659      -14.3839894034      -31.5910323709  TIP3      4546            0.0000000000
     35889      4738  TIP3      H1             -5.7206089944      -14.3250008808      -30.8873992798  TIP3      4546            0.0000000000
     35890      4738  TIP3      H2             -5.5457869248      -14.6264812089      -32.3761727188  TIP3      4546            0.0000000000
     35891      4739  TIP3      OH2           -12.2939798413      -10.8429165955      -40.7382912894  TIP3      4547            0.0000000000
     35892      4739  TIP3      H1            -12.8474693162      -11.1928776849      -41.4585058587  TIP3      4547            0.0000000000
     35893      4739  TIP3      H2            -11.4668512668      -10.6271448813      -41.1987221802  TIP3      4547            0.0000000000
     35894      4740  TIP3      OH2            -1.8344493439        1.2644129544      -25.2597819826  TIP3      4548            0.0000000000
     35895      4740  TIP3      H1             -1.5455875790        1.6502053047      -26.1004745836  TIP3      4548            0.0000000000
     35896      4740  TIP3      H2             -1.1327378847        1.5858952478      -24.6583040304  TIP3      4548            0.0000000000
     35897      4741  TIP3      OH2           -14.1457252985       -6.2944074405      -25.7102149450  TIP3      4549            0.0000000000
     35898      4741  TIP3      H1            -13.4369945377       -6.0042757788      -25.1290955316  TIP3      4549            0.0000000000
     35899      4741  TIP3      H2            -14.9351101063       -6.1393847013      -25.1329066594  TIP3      4549            0.0000000000
     35900      4742  TIP3      OH2            -8.1575620793      -10.8577976088      -32.9372554151  TIP3      4550            0.0000000000
     35901      4742  TIP3      H1             -7.5607404794      -11.3940412063      -33.4730260659  TIP3      4550            0.0000000000
     35902      4742  TIP3      H2             -8.3021231991      -11.4052799503      -32.1541736618  TIP3      4550            0.0000000000
     35903      4743  TIP3      OH2           -13.1478098544      -14.7145225876      -36.4911702327  TIP3      4551            0.0000000000
     35904      4743  TIP3      H1            -13.4569826808      -15.6374732744      -36.5161213063  TIP3      4551            0.0000000000
     35905      4743  TIP3      H2            -12.3611275614      -14.7724802236      -37.0522763496  TIP3      4551            0.0000000000
     35906      4744  TIP3      OH2            -9.5180432758      -12.5332277607      -30.5228206554  TIP3      4552            0.0000000000
     35907      4744  TIP3      H1            -10.3436625012      -12.0142974406      -30.4322517655  TIP3      4552            0.0000000000
     35908      4744  TIP3      H2             -8.9663984833      -12.1802637287      -29.7969294452  TIP3      4552            0.0000000000
     35909      4745  TIP3      OH2            -8.9255995555       -6.3198375638      -38.8040226726  TIP3      4553            0.0000000000
     35910      4745  TIP3      H1             -9.7263838634       -6.7767376697      -39.1444751177  TIP3      4553            0.0000000000
     35911      4745  TIP3      H2             -9.1521387835       -6.1954409689      -37.8628590425  TIP3      4553            0.0000000000
     35912      4746  TIP3      OH2            -1.7527411473       -7.1115434493      -30.0342821424  TIP3      4554            0.0000000000
     35913      4746  TIP3      H1             -1.1825435541       -6.6256843613      -30.6553638607  TIP3      4554            0.0000000000
     35914      4746  TIP3      H2             -2.6126260580       -7.0520454620      -30.4971017697  TIP3      4554            0.0000000000
     35915      4747  TIP3      OH2            -5.0611746221      -13.5087185617      -40.6393147017  TIP3      4555            0.0000000000
     35916      4747  TIP3      H1             -6.0077607885      -13.3548164032      -40.8094800837  TIP3      4555            0.0000000000
     35917      4747  TIP3      H2             -4.7645741079      -12.6348022314      -40.3280830986  TIP3      4555            0.0000000000
     35918      4748  TIP3      OH2            -7.4396994792       -6.0588070735      -27.6017656158  TIP3      4556            0.0000000000
     35919      4748  TIP3      H1             -7.7692687527       -6.4692783632      -26.7907897157  TIP3      4556            0.0000000000
     35920      4748  TIP3      H2             -7.6890685399       -5.1352545437      -27.4821380202  TIP3      4556            0.0000000000
     35921      4749  TIP3      OH2            -4.3609089037      -11.5711390923      -38.9735667268  TIP3      4557            0.0000000000
     35922      4749  TIP3      H1             -3.4623201147      -11.7105442423      -38.6170553452  TIP3      4557            0.0000000000
     35923      4749  TIP3      H2             -4.2741358083      -10.7651671033      -39.5049525129  TIP3      4557            0.0000000000
     35924      4750  TIP3      OH2           -13.8225370393       -6.9164958792      -33.0259324914  TIP3      4558            0.0000000000
     35925      4750  TIP3      H1            -13.1321898453       -6.9937059070      -33.7124221195  TIP3      4558            0.0000000000
     35926      4750  TIP3      H2            -13.7612387345       -7.7759812412      -32.5718195310  TIP3      4558            0.0000000000
     35927      4751  TIP3      OH2            -6.8334245442       -4.8334089970      -39.7654152805  TIP3      4559            0.0000000000
     35928      4751  TIP3      H1             -7.1989078042       -3.9913860056      -39.4256069549  TIP3      4559            0.0000000000
     35929      4751  TIP3      H2             -7.5683699037       -5.4623158408      -39.5883912823  TIP3      4559            0.0000000000
     35930      4752  TIP3      OH2           -16.8369068712       -8.5045227102      -27.7595180755  TIP3      4560            0.0000000000
     35931      4752  TIP3      H1            -16.6548274922       -8.9570234502      -26.9212929113  TIP3      4560            0.0000000000
     35932      4752  TIP3      H2            -17.4581181708       -9.1206325161      -28.1931933342  TIP3      4560            0.0000000000
     35933      4753  TIP3      OH2            -9.8161773837       -8.9632439681      -25.6038433159  TIP3      4561            0.0000000000
     35934      4753  TIP3      H1            -10.1129878618       -9.2550105486      -26.4764999051  TIP3      4561            0.0000000000
     35935      4753  TIP3      H2             -8.8850649122       -9.2652649569      -25.5879594463  TIP3      4561            0.0000000000
     35936      4754  TIP3      OH2            -5.1369268223       -3.6053301621      -27.6346510443  TIP3      4562            0.0000000000
     35937      4754  TIP3      H1             -6.0644839815       -3.4380106141      -27.8741918268  TIP3      4562            0.0000000000
     35938      4754  TIP3      H2             -5.1751129058       -3.3333164104      -26.7012897961  TIP3      4562            0.0000000000
     35939      4755  TIP3      OH2             0.5325478108      -11.4357231692      -39.2298686983  TIP3      4563            0.0000000000
     35940      4755  TIP3      H1             -0.0296403828      -11.7476209361      -39.9605695590  TIP3      4563            0.0000000000
     35941      4755  TIP3      H2              0.6127315002      -10.4978000248      -39.5111640719  TIP3      4563            0.0000000000
     35942      4756  TIP3      OH2             0.5362722269       -5.5885283395      -26.4419767640  TIP3      4564            0.0000000000
     35943      4756  TIP3      H1             -0.3548562840       -5.3624801826      -26.8034858806  TIP3      4564            0.0000000000
     35944      4756  TIP3      H2              1.0778670319       -5.6262883904      -27.2514435041  TIP3      4564            0.0000000000
     35945      4757  TIP3      OH2            -1.1692320580       -2.6051235685      -38.8496268687  TIP3      4565            0.0000000000
     35946      4757  TIP3      H1             -1.5418723888       -3.4332603311      -38.5185202239  TIP3      4565            0.0000000000
     35947      4757  TIP3      H2             -0.8719541744       -2.8035917584      -39.7580308833  TIP3      4565            0.0000000000
     35948      4758  TIP3      OH2            -3.9702902760       -7.7892835308      -31.7401596330  TIP3      4566            0.0000000000
     35949      4758  TIP3      H1             -4.9119215894       -8.0003734097      -31.8506880982  TIP3      4566            0.0000000000
     35950      4758  TIP3      H2             -3.5419432893       -8.5509500235      -32.1716414761  TIP3      4566            0.0000000000
     35951      4759  TIP3      OH2           -11.4422745976       -3.4590707013      -35.6455329928  TIP3      4567            0.0000000000
     35952      4759  TIP3      H1            -10.9578712179       -2.6447676019      -35.8534183318  TIP3      4567            0.0000000000
     35953      4759  TIP3      H2            -12.3271166338       -3.2245386630      -35.9678813894  TIP3      4567            0.0000000000
     35954      4760  TIP3      OH2           -15.7193949109       -8.6010930991      -41.1075879861  TIP3      4568            0.0000000000
     35955      4760  TIP3      H1            -15.0953843945       -7.9765227608      -40.6922017497  TIP3      4568            0.0000000000
     35956      4760  TIP3      H2            -16.5877999740       -8.3141210495      -40.7781504752  TIP3      4568            0.0000000000
     35957      4761  TIP3      OH2           -10.0308267722       -5.8005677166      -36.1129085695  TIP3      4569            0.0000000000
     35958      4761  TIP3      H1            -10.3313650487       -4.8752027982      -36.0379818827  TIP3      4569            0.0000000000
     35959      4761  TIP3      H2            -10.7670249662       -6.2764943817      -35.6792152280  TIP3      4569            0.0000000000
     35960      4762  TIP3      OH2            -9.5791618102       -1.6140366934      -29.7182482023  TIP3      4570            0.0000000000
     35961      4762  TIP3      H1             -9.1333886622       -0.8006413301      -29.9999801505  TIP3      4570            0.0000000000
     35962      4762  TIP3      H2             -8.9672267189       -1.9496246427      -29.0389149870  TIP3      4570            0.0000000000
     35963      4763  TIP3      OH2           -11.2880622452       -0.7923685578      -36.6469747872  TIP3      4571            0.0000000000
     35964      4763  TIP3      H1            -12.2606073473       -0.6826016620      -36.4592201647  TIP3      4571            0.0000000000
     35965      4763  TIP3      H2            -10.9956294465        0.0301963336      -36.2172489925  TIP3      4571            0.0000000000
     35966      4764  TIP3      OH2            -6.0523691763       -5.6042675802      -30.0920659761  TIP3      4572            0.0000000000
     35967      4764  TIP3      H1             -6.3885379349       -5.8033432827      -29.1932861530  TIP3      4572            0.0000000000
     35968      4764  TIP3      H2             -5.4156623515       -6.3171632679      -30.2610764787  TIP3      4572            0.0000000000
     35969      4765  TIP3      OH2            -3.7715760042       -4.5776242031      -40.9753564120  TIP3      4573            0.0000000000
     35970      4765  TIP3      H1             -3.4606613565       -5.0203700376      -40.1599563500  TIP3      4573            0.0000000000
     35971      4765  TIP3      H2             -4.7263394437       -4.7303442939      -40.9050947973  TIP3      4573            0.0000000000
     35972      4766  TIP3      OH2            -3.2783515893       -1.0151246793      -27.5855664971  TIP3      4574            0.0000000000
     35973      4766  TIP3      H1             -3.9267379776       -1.5337014501      -28.0952391509  TIP3      4574            0.0000000000
     35974      4766  TIP3      H2             -3.0565004429       -0.3288642904      -28.2513969927  TIP3      4574            0.0000000000
     35975      4767  TIP3      OH2             0.7450761535       -0.1507163680      -40.7556691880  TIP3      4575            0.0000000000
     35976      4767  TIP3      H1              1.4468101046        0.4804236185      -40.9923501743  TIP3      4575            0.0000000000
     35977      4767  TIP3      H2              0.0286346635        0.4486313337      -40.4551913325  TIP3      4575            0.0000000000
     35978      4768  TIP3      OH2           -15.1769798868      -13.7632782387      -28.1912853921  TIP3      4576            0.0000000000
     35979      4768  TIP3      H1            -16.0891971281      -13.4281814071      -28.2478755743  TIP3      4576            0.0000000000
     35980      4768  TIP3      H2            -15.2989325718      -14.6286175938      -27.7733575753  TIP3      4576            0.0000000000
     35981      4769  TIP3      OH2            -2.9382939276       -5.9135530267      -38.7573881171  TIP3      4577            0.0000000000
     35982      4769  TIP3      H1             -3.1822867237       -6.7114062552      -38.2423359285  TIP3      4577            0.0000000000
     35983      4769  TIP3      H2             -1.9909385677       -5.8465947324      -38.5529149893  TIP3      4577            0.0000000000
     35984      4770  TIP3      OH2           -15.5643496634       -1.9827747912      -29.7821661289  TIP3      4578            0.0000000000
     35985      4770  TIP3      H1            -15.2755436304       -2.9108726419      -29.7810010394  TIP3      4578            0.0000000000
     35986      4770  TIP3      H2            -15.3041691152       -1.6979115083      -28.9002607863  TIP3      4578            0.0000000000
     35987      4771  TIP3      OH2           -10.7893713025       -3.9079330786      -40.0913146271  TIP3      4579            0.0000000000
     35988      4771  TIP3      H1            -10.5670927311       -4.4669382683      -39.3349763366  TIP3      4579            0.0000000000
     35989      4771  TIP3      H2            -10.7379875044       -2.9992032519      -39.7395373081  TIP3      4579            0.0000000000
     35990      4772  TIP3      OH2           -14.3243907471       -6.6829672386      -39.6214534322  TIP3      4580            0.0000000000
     35991      4772  TIP3      H1            -14.9871655217       -6.2805908086      -39.0199431881  TIP3      4580            0.0000000000
     35992      4772  TIP3      H2            -13.7619803716       -5.9200685415      -39.8425576282  TIP3      4580            0.0000000000
     35993      4773  TIP3      OH2            -6.4515830659      -14.0058022344      -29.2669978813  TIP3      4581            0.0000000000
     35994      4773  TIP3      H1             -5.7400481692      -13.9401603657      -28.6181795359  TIP3      4581            0.0000000000
     35995      4773  TIP3      H2             -6.8364273058      -14.8807008968      -29.0628590001  TIP3      4581            0.0000000000
     35996      4774  TIP3      OH2            -5.7141030369      -14.4121085189      -38.1553265334  TIP3      4582            0.0000000000
     35997      4774  TIP3      H1             -5.4620871535      -13.9532838575      -38.9834936535  TIP3      4582            0.0000000000
     35998      4774  TIP3      H2             -5.1244497584      -13.9850953159      -37.5238195062  TIP3      4582            0.0000000000
     35999      4775  TIP3      OH2            -8.0028587810       -2.2263085961      -39.3138119335  TIP3      4583            0.0000000000
     36000      4775  TIP3      H1             -8.8553438102       -1.7580698174      -39.2992392360  TIP3      4583            0.0000000000
     36001      4775  TIP3      H2             -7.4799545929       -1.7759797839      -39.9963621025  TIP3      4583            0.0000000000
     36002      4776  TIP3      OH2            -8.4841418462      -12.6796726426      -37.3564044115  TIP3      4584            0.0000000000
     36003      4776  TIP3      H1             -7.6951540407      -12.1025964966      -37.3257783862  TIP3      4584            0.0000000000
     36004      4776  TIP3      H2             -8.7444763071      -12.8035513610      -36.4262580954  TIP3      4584            0.0000000000
     36005      4777  TIP3      OH2            -7.9404876457      -11.6689026350      -28.1594596373  TIP3      4585            0.0000000000
     36006      4777  TIP3      H1             -7.8474233283      -11.0970694529      -27.3715768201  TIP3      4585            0.0000000000
     36007      4777  TIP3      H2             -7.2629660134      -12.3514688740      -28.0634364017  TIP3      4585            0.0000000000
     36008      4778  TIP3      OH2            -7.6203010946      -15.6178198023      -36.4686722413  TIP3      4586            0.0000000000
     36009      4778  TIP3      H1             -7.9490697504      -14.9637969219      -35.8288062421  TIP3      4586            0.0000000000
     36010      4778  TIP3      H2             -6.9298538687      -15.0693839233      -36.9175160196  TIP3      4586            0.0000000000
     36011      4779  TIP3      OH2           -10.6065934679       -1.2176383604      -39.3168466810  TIP3      4587            0.0000000000
     36012      4779  TIP3      H1            -10.5016139365       -0.3982204636      -39.8339123473  TIP3      4587            0.0000000000
     36013      4779  TIP3      H2            -10.9194873842       -0.8928483978      -38.4362148492  TIP3      4587            0.0000000000
     36014      4780  TIP3      OH2           -11.9620303812      -14.5326507143      -39.7155872592  TIP3      4588            0.0000000000
     36015      4780  TIP3      H1            -12.0270637281      -13.6140023482      -39.3837084599  TIP3      4588            0.0000000000
     36016      4780  TIP3      H2            -11.0463233368      -14.7529332971      -39.4587188734  TIP3      4588            0.0000000000
     36017      4781  TIP3      OH2            -1.7343203246      -13.7638620618      -27.3011650658  TIP3      4589            0.0000000000
     36018      4781  TIP3      H1             -2.6717447282      -13.4845778282      -27.4413643577  TIP3      4589            0.0000000000
     36019      4781  TIP3      H2             -1.4423510633      -13.8036839297      -28.2247220216  TIP3      4589            0.0000000000
     36020      4782  TIP3      OH2            -3.1304806700       -9.9959866861      -33.3005836127  TIP3      4590            0.0000000000
     36021      4782  TIP3      H1             -3.9550891727      -10.4375783846      -33.5810512525  TIP3      4590            0.0000000000
     36022      4782  TIP3      H2             -2.6550891597      -10.6859436126      -32.7837456690  TIP3      4590            0.0000000000
     36023      4783  TIP3      OH2           -13.7187459569       -4.0755553418      -40.7094851298  TIP3      4591            0.0000000000
     36024      4783  TIP3      H1            -13.0875385791       -3.4233225819      -40.3792542698  TIP3      4591            0.0000000000
     36025      4783  TIP3      H2            -13.1934976238       -4.5375052727      -41.3940313151  TIP3      4591            0.0000000000
     36026      4784  TIP3      OH2           -15.3389231422      -11.3963309465      -41.5141333109  TIP3      4592            0.0000000000
     36027      4784  TIP3      H1            -15.3731936504      -10.4318738724      -41.3962017159  TIP3      4592            0.0000000000
     36028      4784  TIP3      H2            -16.2114449707      -11.5994166469      -41.8723410296  TIP3      4592            0.0000000000
     36029      4785  TIP3      OH2            -2.0680052181       -0.7395269208      -31.6321360101  TIP3      4593            0.0000000000
     36030      4785  TIP3      H1             -2.1597135357       -0.0568935149      -32.3216315964  TIP3      4593            0.0000000000
     36031      4785  TIP3      H2             -1.1045157246       -0.6825776827      -31.4473727308  TIP3      4593            0.0000000000
     36032      4786  TIP3      OH2           -14.5718490788      -16.6153979338      -32.8312176003  TIP3      4594            0.0000000000
     36033      4786  TIP3      H1            -14.7729926725      -16.5945244684      -33.7932894399  TIP3      4594            0.0000000000
     36034      4786  TIP3      H2            -14.9919341294      -17.4634579295      -32.5765562098  TIP3      4594            0.0000000000
     36035      4787  TIP3      OH2           -15.6863930991       -3.1483035693      -36.8006037749  TIP3      4595            0.0000000000
     36036      4787  TIP3      H1            -16.3673854449       -2.4620187166      -36.6528467706  TIP3      4595            0.0000000000
     36037      4787  TIP3      H2            -15.1283608808       -2.4883006220      -37.2344551860  TIP3      4595            0.0000000000
     36038      4788  TIP3      OH2           -16.4166129984       -0.0219024393      -25.3958125123  TIP3      4596            0.0000000000
     36039      4788  TIP3      H1            -15.8015124606       -0.2349491891      -24.6594895246  TIP3      4596            0.0000000000
     36040      4788  TIP3      H2            -16.8250296745       -0.8864329730      -25.5650310760  TIP3      4596            0.0000000000
     36041      4789  TIP3      OH2           -11.7421081244       -1.1430091345      -23.7950698693  TIP3      4597            0.0000000000
     36042      4789  TIP3      H1            -10.9581067521       -1.6002555403      -23.4888182626  TIP3      4597            0.0000000000
     36043      4789  TIP3      H2            -11.7901292037       -1.3986471384      -24.7357288182  TIP3      4597            0.0000000000
     36044      4790  TIP3      OH2            -7.2505323327       -1.5328767746      -41.8032846233  TIP3      4598            0.0000000000
     36045      4790  TIP3      H1             -8.0793538862       -2.0364345878      -41.9096988103  TIP3      4598            0.0000000000
     36046      4790  TIP3      H2             -6.7530497983       -1.9999488454      -42.4832351646  TIP3      4598            0.0000000000
     36047      4791  TIP3      OH2            -5.2204366125       -2.7378796094      -25.0516259952  TIP3      4599            0.0000000000
     36048      4791  TIP3      H1             -5.5440704795       -3.6225270019      -24.7785243824  TIP3      4599            0.0000000000
     36049      4791  TIP3      H2             -4.4369165882       -2.6489859129      -24.4877278937  TIP3      4599            0.0000000000
     36050      4792  TIP3      OH2            -3.0305097968       -1.8338537670      -42.1905706151  TIP3      4600            0.0000000000
     36051      4792  TIP3      H1             -2.7740743114       -2.6462705142      -41.7114266339  TIP3      4600            0.0000000000
     36052      4792  TIP3      H2             -2.2528755046       -1.6330756773      -42.7258014394  TIP3      4600            0.0000000000
     36053      4793  TIP3      OH2           -16.4056721533       -6.2499519614      -24.4818083284  TIP3      4601            0.0000000000
     36054      4793  TIP3      H1            -16.3817658881       -7.1952519927      -24.7009848373  TIP3      4601            0.0000000000
     36055      4793  TIP3      H2            -17.2377464580       -6.0135657504      -24.9354272780  TIP3      4601            0.0000000000
     36056      4794  TIP3      OH2           -12.0563338140       -5.8498018626      -42.2451622110  TIP3      4602            0.0000000000
     36057      4794  TIP3      H1            -12.0120021339       -6.6884550830      -41.7759277238  TIP3      4602            0.0000000000
     36058      4794  TIP3      H2            -11.5006483099       -6.0780026416      -43.0167487697  TIP3      4602            0.0000000000
     36059      4795  TIP3      OH2            -9.6995807482       -6.2536655119      -25.0462288366  TIP3      4603            0.0000000000
     36060      4795  TIP3      H1            -10.1271318705       -5.9752863698      -25.8758260854  TIP3      4603            0.0000000000
     36061      4795  TIP3      H2             -9.7059169372       -7.2380817848      -25.1047165338  TIP3      4603            0.0000000000
     36062      4796  TIP3      OH2            -4.0840270789       -6.4142646839      -27.6132448343  TIP3      4604            0.0000000000
     36063      4796  TIP3      H1             -3.2971489672       -5.8335920873      -27.7023760398  TIP3      4604            0.0000000000
     36064      4796  TIP3      H2             -4.7871083008       -5.7530054655      -27.5756998123  TIP3      4604            0.0000000000
     36065      4797  TIP3      OH2           -15.5291816557       -9.0281117537      -24.9828357064  TIP3      4605            0.0000000000
     36066      4797  TIP3      H1            -15.2021117573       -9.9081666592      -25.1936041072  TIP3      4605            0.0000000000
     36067      4797  TIP3      H2            -15.9112691783       -9.1263496099      -24.1075695637  TIP3      4605            0.0000000000
     36068      4798  TIP3      OH2           -10.9385300235       -7.8875163150      -39.9689785338  TIP3      4606            0.0000000000
     36069      4798  TIP3      H1            -11.4390473371       -8.4216469041      -39.3301148790  TIP3      4606            0.0000000000
     36070      4798  TIP3      H2            -10.6373147634       -8.5831284374      -40.6009608155  TIP3      4606            0.0000000000
     36071      4799  TIP3      OH2           -11.6843649898      -10.0917010529      -27.6648725154  TIP3      4607            0.0000000000
     36072      4799  TIP3      H1            -12.2743910548       -9.3655495978      -27.4066309136  TIP3      4607            0.0000000000
     36073      4799  TIP3      H2            -11.2864815210       -9.7319010056      -28.4781765483  TIP3      4607            0.0000000000
     36074      4800  TIP3      OH2            -9.8681260925       -9.6706607940      -41.7567784691  TIP3      4608            0.0000000000
     36075      4800  TIP3      H1             -9.9837462709       -9.8694638422      -42.6961541718  TIP3      4608            0.0000000000
     36076      4800  TIP3      H2             -8.8899693177       -9.5998808214      -41.6529321165  TIP3      4608            0.0000000000
     36077      4801  TIP3      OH2            -6.6146170555       -7.5187531385      -24.2863044493  TIP3      4609            0.0000000000
     36078      4801  TIP3      H1             -5.6615318407       -7.5552411188      -24.4511614064  TIP3      4609            0.0000000000
     36079      4801  TIP3      H2             -6.8046996905       -8.3119921415      -23.7587316835  TIP3      4609            0.0000000000
     36080      4802  TIP3      OH2            -0.6664286830       -7.2388370499       42.7526821022  TIP3      4610            0.0000000000
     36081      4802  TIP3      H1             -0.7909219452       -7.7277008395       41.9240393132  TIP3      4610            0.0000000000
     36082      4802  TIP3      H2             -0.4623052119       -6.3356804985       42.4821759279  TIP3      4610            0.0000000000
     36083      4803  TIP3      OH2           -11.3162252938      -12.7070935755      -26.5699291600  TIP3      4611            0.0000000000
     36084      4803  TIP3      H1            -11.1642199566      -13.4226295179      -27.2167711199  TIP3      4611            0.0000000000
     36085      4803  TIP3      H2            -11.3178370923      -11.9175976211      -27.1501595392  TIP3      4611            0.0000000000
     36086      4804  TIP3      OH2           -10.8758863462      -14.3398655614      -29.0554236802  TIP3      4612            0.0000000000
     36087      4804  TIP3      H1            -10.3644597236      -13.8757574724      -29.7603834273  TIP3      4612            0.0000000000
     36088      4804  TIP3      H2            -11.7671639261      -14.4207143904      -29.4658307687  TIP3      4612            0.0000000000
     36089      4805  TIP3      OH2            -9.3356912440       -8.8666524074      -28.8149391415  TIP3      4613            0.0000000000
     36090      4805  TIP3      H1             -8.5788565891       -9.0201420437      -29.3899063167  TIP3      4613            0.0000000000
     36091      4805  TIP3      H2             -9.6933660295       -8.0217476130      -29.1337255835  TIP3      4613            0.0000000000
     36092      4806  TIP3      OH2            -4.9361159635      -11.0810922875      -23.8298756486  TIP3      4614            0.0000000000
     36093      4806  TIP3      H1             -4.6951040340      -12.0184381013      -23.9042685183  TIP3      4614            0.0000000000
     36094      4806  TIP3      H2             -4.0613755359      -10.6559792669      -23.8147674274  TIP3      4614            0.0000000000
     36095      4807  TIP3      OH2            -3.6134758472       -8.2984899567      -25.7330781631  TIP3      4615            0.0000000000
     36096      4807  TIP3      H1             -3.8437960744       -7.5583798874      -26.3308594039  TIP3      4615            0.0000000000
     36097      4807  TIP3      H2             -2.6408093832       -8.3132402006      -25.8530661382  TIP3      4615            0.0000000000
     36098      4808  TIP3      OH2           -12.8484848189      -11.4695565507      -24.6538590818  TIP3      4616            0.0000000000
     36099      4808  TIP3      H1            -13.5824472541      -12.0663809919      -24.8855741757  TIP3      4616            0.0000000000
     36100      4808  TIP3      H2            -12.1633167410      -11.7922641936      -25.2756793610  TIP3      4616            0.0000000000
     36101      4809  TIP3      OH2           -10.0897965827      -16.9051321967      -28.6570735782  TIP3      4617            0.0000000000
     36102      4809  TIP3      H1            -10.2590148746      -15.9411237591      -28.7606201141  TIP3      4617            0.0000000000
     36103      4809  TIP3      H2            -10.8386119948      -17.2663551474      -29.1632696113  TIP3      4617            0.0000000000
     36104      4810  TIP3      OH2            -8.8064869272      -12.5860670938      -25.0566741028  TIP3      4618            0.0000000000
     36105      4810  TIP3      H1             -9.1093157420      -12.7883490394      -24.1574648331  TIP3      4618            0.0000000000
     36106      4810  TIP3      H2             -9.6074576062      -12.7804807436      -25.5761077896  TIP3      4618            0.0000000000
     36107      4811  TIP3      OH2            -6.1200029739      -13.4416310015      -25.9808540190  TIP3      4619            0.0000000000
     36108      4811  TIP3      H1             -7.0795683898      -13.3882786441      -25.8365501066  TIP3      4619            0.0000000000
     36109      4811  TIP3      H2             -5.8207867348      -14.0641243303      -25.2917471458  TIP3      4619            0.0000000000
     36110      4812  TIP3      OH2            -4.5182755867      -14.7979526426      -24.0371385997  TIP3      4620            0.0000000000
     36111      4812  TIP3      H1             -4.5866519238      -15.7772417455      -24.0328436695  TIP3      4620            0.0000000000
     36112      4812  TIP3      H2             -4.7583146877      -14.5028010574      -23.1306384299  TIP3      4620            0.0000000000
     36113      4813  TIP3      OH2           -14.6828572794      -13.5376709129      -24.9377344037  TIP3      4621            0.0000000000
     36114      4813  TIP3      H1            -14.4681943301      -14.2613963738      -25.5609388823  TIP3      4621            0.0000000000
     36115      4813  TIP3      H2            -14.8085045330      -14.0318684695      -24.1256873041  TIP3      4621            0.0000000000
     36116      4814  TIP3      OH2            -9.8727115327      -17.5274595931      -25.9674477904  TIP3      4622            0.0000000000
     36117      4814  TIP3      H1             -9.1783263078      -18.2172719848      -25.9953354483  TIP3      4622            0.0000000000
     36118      4814  TIP3      H2             -9.9772122049      -17.3547270924      -26.9197336972  TIP3      4622            0.0000000000
     36119      4815  TIP3      OH2            -9.4794439896      -15.8954114524      -23.8661249306  TIP3      4623            0.0000000000
     36120      4815  TIP3      H1             -9.6775997315      -16.4309489171      -24.6706870198  TIP3      4623            0.0000000000
     36121      4815  TIP3      H2            -10.1161741957      -15.1671143480      -23.9434603459  TIP3      4623            0.0000000000
     36122      4816  TIP3      OH2           -10.0310063721        1.0462946135      -40.7052936900  TIP3      4624            0.0000000000
     36123      4816  TIP3      H1             -9.0567477754        1.0997506654      -40.6452575955  TIP3      4624            0.0000000000
     36124      4816  TIP3      H2            -10.2247636635        1.6647554054      -41.4108294708  TIP3      4624            0.0000000000
     36125      4817  TIP3      OH2           -16.4708058288       -4.4213657201      -41.2106802743  TIP3      4625            0.0000000000
     36126      4817  TIP3      H1            -15.5183035609       -4.2874941993      -40.9841292731  TIP3      4625            0.0000000000
     36127      4817  TIP3      H2            -16.4129110291       -5.0001111090      -41.9732337785  TIP3      4625            0.0000000000
     36128      4818  TIP3      OH2           -18.0170863056        1.0717276428      -36.0350534061  TIP3      4626            0.0000000000
     36129      4818  TIP3      H1            -18.3913916340        0.4994638536      -36.7327497297  TIP3      4626            0.0000000000
     36130      4818  TIP3      H2            -17.3895260450        0.3979608625      -35.6778491828  TIP3      4626            0.0000000000
     36131      4819  TIP3      OH2           -16.9134102796       -0.8981527043      -34.2843036270  TIP3      4627            0.0000000000
     36132      4819  TIP3      H1            -17.2334480309       -1.7911908176      -34.1562015778  TIP3      4627            0.0000000000
     36133      4819  TIP3      H2            -16.6379960595       -0.5698140625      -33.4230553700  TIP3      4627            0.0000000000
     36134      4820  TIP3      OH2             0.6519760966       -0.0936106438      -31.4330792521  TIP3      4628            0.0000000000
     36135      4820  TIP3      H1              0.6802265980        0.0685541210      -30.4732014682  TIP3      4628            0.0000000000
     36136      4820  TIP3      H2              1.3574885595        0.4865323988      -31.7377323834  TIP3      4628            0.0000000000
     36137      4821  TIP3      OH2             0.2517691200       -0.4950017013      -28.5179348300  TIP3      4629            0.0000000000
     36138      4821  TIP3      H1             -0.2550725805       -1.2633086943      -28.8555678353  TIP3      4629            0.0000000000
     36139      4821  TIP3      H2              0.7241307716       -0.9349356184      -27.7916977735  TIP3      4629            0.0000000000
     36140      4822  TIP3      OH2            -1.3397992378       -4.7558187964      -23.8433328065  TIP3      4630            0.0000000000
     36141      4822  TIP3      H1             -2.1962859677       -4.8302559013      -23.4250395713  TIP3      4630            0.0000000000
     36142      4822  TIP3      H2             -0.9617644329       -3.9823370515      -23.3717564863  TIP3      4630            0.0000000000
     36143      4823  TIP3      OH2            -0.0009999993       -6.4554759561      -38.3884126976  TIP3      4631            0.0000000000
     36144      4823  TIP3      H1              0.8497066359       -6.0444835222      -38.1756453866  TIP3      4631            0.0000000000
     36145      4823  TIP3      H2             -0.0281254143       -7.1684356671      -37.7115103864  TIP3      4631            0.0000000000
     36146      4824  TIP3      OH2             0.3475377682       -8.3714596058      -36.5051053292  TIP3      4632            0.0000000000
     36147      4824  TIP3      H1             -0.3999300723       -8.8830187349      -36.1196552345  TIP3      4632            0.0000000000
     36148      4824  TIP3      H2              0.9451289504       -8.2380186028      -35.7405326465  TIP3      4632            0.0000000000
     36149      4825  TIP3      OH2             0.1049162834       -5.6800765614      -31.5215610605  TIP3      4633            0.0000000000
     36150      4825  TIP3      H1              0.9266006730       -6.0493947864      -31.8911191098  TIP3      4633            0.0000000000
     36151      4825  TIP3      H2              0.2490727043       -4.7235084016      -31.6807044766  TIP3      4633            0.0000000000
     36152      4826  TIP3      OH2            -1.3422860820       -2.7667606395      -29.2538121894  TIP3      4634            0.0000000000
     36153      4826  TIP3      H1             -2.0249310031       -2.4294363613      -28.6524341935  TIP3      4634            0.0000000000
     36154      4826  TIP3      H2             -1.8912529404       -3.1761856971      -29.9552824405  TIP3      4634            0.0000000000
     36155      4827  TIP3      OH2             0.6402811954       -8.5548990239      -40.1286467603  TIP3      4635            0.0000000000
     36156      4827  TIP3      H1              0.0596385653       -8.1881211071      -40.8197059765  TIP3      4635            0.0000000000
     36157      4827  TIP3      H2              0.5730256825       -7.8499431920      -39.4526625750  TIP3      4635            0.0000000000
     36158      4828  TIP3      OH2            -1.3430990703      -11.2869111420      -41.4957679877  TIP3      4636            0.0000000000
     36159      4828  TIP3      H1             -0.9117667096      -10.6948155354      -42.1322040948  TIP3      4636            0.0000000000
     36160      4828  TIP3      H2             -1.1758963307      -12.1290077795      -41.9625466966  TIP3      4636            0.0000000000
     36161      4829  TIP3      OH2            -1.8301721631       -9.8976906947      -35.9328598571  TIP3      4637            0.0000000000
     36162      4829  TIP3      H1             -1.9824189271      -10.8533603443      -35.9710080822  TIP3      4637            0.0000000000
     36163      4829  TIP3      H2             -2.1675520338       -9.6754778547      -35.0458101843  TIP3      4637            0.0000000000
     36164      4830  TIP3      OH2           -16.8279436636       -7.8117087117      -31.8755343401  TIP3      4638            0.0000000000
     36165      4830  TIP3      H1            -16.6444856090       -7.8961573235      -32.8373333218  TIP3      4638            0.0000000000
     36166      4830  TIP3      H2            -15.9344733402       -7.9850128154      -31.5179295394  TIP3      4638            0.0000000000
     36167      4831  TIP3      OH2            -0.9827696639       -7.9260566518      -26.3009381005  TIP3      4639            0.0000000000
     36168      4831  TIP3      H1             -0.3838032842       -8.6658368068      -26.0686503776  TIP3      4639            0.0000000000
     36169      4831  TIP3      H2             -0.3903730218       -7.1514834921      -26.2127983157  TIP3      4639            0.0000000000
     36170      4832  TIP3      OH2             0.5465766191      -10.0448700994      -25.7252265501  TIP3      4640            0.0000000000
     36171      4832  TIP3      H1             -0.3623927078      -10.4251337370      -25.7151325838  TIP3      4640            0.0000000000
     36172      4832  TIP3      H2              1.1075758986      -10.8031878288      -25.6434737611  TIP3      4640            0.0000000000
     36173      4833  TIP3      OH2            -1.7308193557      -13.9049557963      -42.4895885839  TIP3      4641            0.0000000000
     36174      4833  TIP3      H1             -1.1513659010      -14.3102436166      -41.8148409252  TIP3      4641            0.0000000000
     36175      4833  TIP3      H2             -2.6181955740      -14.2427940154      -42.2781843666  TIP3      4641            0.0000000000
     36176      4834  TIP3      OH2            -2.1627036703      -12.3138451498      -37.4569965906  TIP3      4642            0.0000000000
     36177      4834  TIP3      H1             -1.8571830374      -13.2436549010      -37.3487777340  TIP3      4642            0.0000000000
     36178      4834  TIP3      H2             -1.3836141124      -11.9106287144      -37.8628793147  TIP3      4642            0.0000000000
     36179      4835  TIP3      OH2            -1.5279339764      -11.7703934313      -32.0331900188  TIP3      4643            0.0000000000
     36180      4835  TIP3      H1             -0.5680345340      -11.5379310385      -32.0459368895  TIP3      4643            0.0000000000
     36181      4835  TIP3      H2             -1.7183784127      -11.6293341135      -31.0933638101  TIP3      4643            0.0000000000
     36182      4836  TIP3      OH2            -1.4619462542      -11.0480345612      -29.2606820862  TIP3      4644            0.0000000000
     36183      4836  TIP3      H1             -2.3355578007      -10.7531617866      -28.9156789384  TIP3      4644            0.0000000000
     36184      4836  TIP3      H2             -1.0231022518      -10.1868534806      -29.4613564202  TIP3      4644            0.0000000000
     36185      4837  TIP3      OH2           -17.1959396157      -12.5585689194      -25.7714734811  TIP3      4645            0.0000000000
     36186      4837  TIP3      H1            -16.2758603687      -12.7335528529      -25.5144026015  TIP3      4645            0.0000000000
     36187      4837  TIP3      H2            -17.6778450888      -13.3174672294      -25.3844475402  TIP3      4645            0.0000000000
     36188      4838  TIP3      OH2             0.7831281940      -17.0213162170      -23.9535389420  TIP3      4646            0.0000000000
     36189      4838  TIP3      H1              1.1455452007      -17.6794618836      -24.5367527685  TIP3      4646            0.0000000000
     36190      4838  TIP3      H2              0.9568929392      -16.1932293908      -24.3906662171  TIP3      4646            0.0000000000
     36191      4839  TIP3      OH2            -1.5027814063      -15.0386512569      -37.4299921590  TIP3      4647            0.0000000000
     36192      4839  TIP3      H1             -1.3056679753      -15.4722702913      -36.5807704686  TIP3      4647            0.0000000000
     36193      4839  TIP3      H2             -2.1068682484      -15.6673531210      -37.8784304514  TIP3      4647            0.0000000000
     36194      4840  TIP3      OH2           -16.0147625797      -14.2257261693      -32.8677142581  TIP3      4648            0.0000000000
     36195      4840  TIP3      H1            -15.5479617256      -15.0483116122      -32.6100745162  TIP3      4648            0.0000000000
     36196      4840  TIP3      H2            -15.4669437536      -13.5307439966      -32.4775225902  TIP3      4648            0.0000000000
     36197      4841  TIP3      OH2           -17.7249823611      -11.2249569587      -31.8312772556  TIP3      4649            0.0000000000
     36198      4841  TIP3      H1            -17.1641427464      -11.4685493150      -32.5959705888  TIP3      4649            0.0000000000
     36199      4841  TIP3      H2            -17.2671272448      -10.4147668502      -31.5639950676  TIP3      4649            0.0000000000
     36200      4842  TIP3      OH2             0.3252294197      -14.9791233706      -40.8512043821  TIP3      4650            0.0000000000
     36201      4842  TIP3      H1              0.7505722671      -15.6842185391      -41.3650910598  TIP3      4650            0.0000000000
     36202      4842  TIP3      H2              1.0433088682      -14.3233169053      -40.8455641664  TIP3      4650            0.0000000000
     36203      4843  TIP3      OH2           -17.3575659394      -14.9611625164      -37.7711671167  TIP3      4651            0.0000000000
     36204      4843  TIP3      H1            -18.3025812403      -14.7745267006      -37.8907948356  TIP3      4651            0.0000000000
     36205      4843  TIP3      H2            -16.9425011659      -14.4661911876      -38.4957519687  TIP3      4651            0.0000000000
     36206      4844  TIP3      OH2            -2.6332673181       -0.0075981419      -35.8082802883  TIP3      4652            0.0000000000
     36207      4844  TIP3      H1             -1.9481435212       -0.3183380657      -36.4285361502  TIP3      4652            0.0000000000
     36208      4844  TIP3      H2             -2.1085684120        0.4873165504      -35.1627551428  TIP3      4652            0.0000000000
     36209      4845  TIP3      OH2           -17.4084637531      -16.3011988905      -29.4607904867  TIP3      4653            0.0000000000
     36210      4845  TIP3      H1            -18.0793469854      -16.4984736447      -28.7832144316  TIP3      4653            0.0000000000
     36211      4845  TIP3      H2            -17.8697861680      -15.6293044922      -30.0044901239  TIP3      4653            0.0000000000
     36212      4846  TIP3      OH2           -15.1801884789       -3.1137560392      -25.2813148117  TIP3      4654            0.0000000000
     36213      4846  TIP3      H1            -16.0213774978       -2.9004728730      -25.7240260816  TIP3      4654            0.0000000000
     36214      4846  TIP3      H2            -15.4613119983       -3.1605497237      -24.3609548118  TIP3      4654            0.0000000000
     36215      4847  TIP3      OH2           -12.2783049766       -2.1014400493      -29.0193956776  TIP3      4655            0.0000000000
     36216      4847  TIP3      H1            -12.6167236100       -1.2408079512      -29.2959590667  TIP3      4655            0.0000000000
     36217      4847  TIP3      H2            -11.3523840576       -2.0144205511      -29.3292775569  TIP3      4655            0.0000000000
     36218      4848  TIP3      OH2            -7.9329931653       -0.6880599520      -26.1019557763  TIP3      4656            0.0000000000
     36219      4848  TIP3      H1             -7.7444656770       -1.0386049845      -25.2215492770  TIP3      4656            0.0000000000
     36220      4848  TIP3      H2             -7.0505639637       -0.3890897823      -26.4023531468  TIP3      4656            0.0000000000
     36221      4849  TIP3      OH2            -5.6680793245        0.5688265563      -26.7570073227  TIP3      4657            0.0000000000
     36222      4849  TIP3      H1             -4.9413944623        0.0015663619      -27.0677601871  TIP3      4657            0.0000000000
     36223      4849  TIP3      H2             -5.2393057355        1.0217194913      -26.0266255404  TIP3      4657            0.0000000000
     36224      4850  TIP3      OH2            -0.6542163569      -16.7967709833      -27.7169009268  TIP3      4658            0.0000000000
     36225      4850  TIP3      H1             -1.4895863016      -16.5008426546      -28.1237319394  TIP3      4658            0.0000000000
     36226      4850  TIP3      H2             -0.4888374126      -17.6214676443      -28.2181331718  TIP3      4658            0.0000000000
     36227      4851  TIP3      OH2           -14.8473162397        1.1444882230      -29.0128440261  TIP3      4659            0.0000000000
     36228      4851  TIP3      H1            -15.5802024764        1.6229284625      -29.4307316190  TIP3      4659            0.0000000000
     36229      4851  TIP3      H2            -15.1723016716        0.9414063115      -28.1257712050  TIP3      4659            0.0000000000
     36230      4852  TIP3      OH2           -12.3715858721        0.7252125751      -29.9304736115  TIP3      4660            0.0000000000
     36231      4852  TIP3      H1            -13.2735506098        0.8558334856      -29.5532775756  TIP3      4660            0.0000000000
     36232      4852  TIP3      H2            -12.4344589934        1.3005846497      -30.7157521093  TIP3      4660            0.0000000000
     36233      4853  TIP3      OH2            -7.6703450754        0.6280962894      -30.7804467176  TIP3      4661            0.0000000000
     36234      4853  TIP3      H1             -8.1358811473        1.1805671240      -31.4300334408  TIP3      4661            0.0000000000
     36235      4853  TIP3      H2             -7.5432282104        1.2603706487      -30.0397368569  TIP3      4661            0.0000000000
     36236      4854  TIP3      OH2            -5.3851081890       -0.5518020592      -29.7451055764  TIP3      4662            0.0000000000
     36237      4854  TIP3      H1             -6.2417257802       -0.2920110911      -30.1209714871  TIP3      4662            0.0000000000
     36238      4854  TIP3      H2             -4.9086887502        0.2881784846      -29.8597831698  TIP3      4662            0.0000000000
     36239      4855  TIP3      OH2            -2.8132534676        1.0100816298      -29.5246865481  TIP3      4663            0.0000000000
     36240      4855  TIP3      H1             -2.8627773393        1.9691983823      -29.7632691341  TIP3      4663            0.0000000000
     36241      4855  TIP3      H2             -2.5888658272        0.6376427311      -30.3987951184  TIP3      4663            0.0000000000
     36242      4856  TIP3      OH2           -15.3877816337       -0.1994159563      -32.0566735212  TIP3      4664            0.0000000000
     36243      4856  TIP3      H1            -15.4684555772       -0.6776642627      -31.2076337392  TIP3      4664            0.0000000000
     36244      4856  TIP3      H2            -14.5910707733       -0.5879723171      -32.4824059862  TIP3      4664            0.0000000000
     36245      4857  TIP3      OH2           -13.3447927530       -1.5281190020      -33.3073216331  TIP3      4665            0.0000000000
     36246      4857  TIP3      H1            -13.4786782489       -2.4804788401      -33.1886167472  TIP3      4665            0.0000000000
     36247      4857  TIP3      H2            -12.4438207887       -1.3720160330      -32.9604181778  TIP3      4665            0.0000000000
     36248      4858  TIP3      OH2           -10.7214038289       -1.0201139292      -32.5543322950  TIP3      4666            0.0000000000
     36249      4858  TIP3      H1            -10.5531186477       -1.9415274214      -32.8204962262  TIP3      4666            0.0000000000
     36250      4858  TIP3      H2            -10.6653358134       -1.0783908087      -31.5888314711  TIP3      4666            0.0000000000
     36251      4859  TIP3      OH2            -7.2574232027      -15.3684930699      -33.4164476288  TIP3      4667            0.0000000000
     36252      4859  TIP3      H1             -7.9325632522      -16.0112070954      -33.1407196383  TIP3      4667            0.0000000000
     36253      4859  TIP3      H2             -6.7066433511      -15.9003677151      -34.0015650778  TIP3      4667            0.0000000000
     36254      4860  TIP3      OH2            -2.1188031740      -17.3148891802      -33.3428886007  TIP3      4668            0.0000000000
     36255      4860  TIP3      H1             -1.5363561797      -16.7174887398      -33.8690083905  TIP3      4668            0.0000000000
     36256      4860  TIP3      H2             -3.0106721521      -16.9704071731      -33.5671116256  TIP3      4668            0.0000000000
     36257      4861  TIP3      OH2            -0.4113200683      -16.1073314207      -35.0050295936  TIP3      4669            0.0000000000
     36258      4861  TIP3      H1              0.2076806231      -16.6497859197      -35.5465069591  TIP3      4669            0.0000000000
     36259      4861  TIP3      H2              0.0284304892      -15.2219379224      -34.9948133600  TIP3      4669            0.0000000000
     36260      4862  TIP3      OH2           -14.8895114780      -16.7442787293      -35.5650490838  TIP3      4670            0.0000000000
     36261      4862  TIP3      H1            -15.6837673363      -16.9458165476      -36.0977721244  TIP3      4670            0.0000000000
     36262      4862  TIP3      H2            -14.4231855439      -17.5992978919      -35.6233210451  TIP3      4670            0.0000000000
     36263      4863  TIP3      OH2           -16.1391258755      -16.9879820873      -39.8439051949  TIP3      4671            0.0000000000
     36264      4863  TIP3      H1            -15.6353951041      -16.3477002268      -40.3901196929  TIP3      4671            0.0000000000
     36265      4863  TIP3      H2            -16.6874520533      -16.4069381977      -39.2936316593  TIP3      4671            0.0000000000
     36266      4864  TIP3      OH2           -10.4086312884      -16.8194301807      -35.7833220402  TIP3      4672            0.0000000000
     36267      4864  TIP3      H1             -9.5098462607      -16.4560020109      -35.8478198181  TIP3      4672            0.0000000000
     36268      4864  TIP3      H2            -10.4518068157      -17.0360616999      -34.8531459849  TIP3      4672            0.0000000000
     36269      4865  TIP3      OH2            -4.7112784961      -16.8036067015      -34.1492363041  TIP3      4673            0.0000000000
     36270      4865  TIP3      H1             -4.7475440121      -16.6895659296      -35.1069031882  TIP3      4673            0.0000000000
     36271      4865  TIP3      H2             -5.0853484044      -17.7086550892      -34.0300775232  TIP3      4673            0.0000000000
     36272      4866  TIP3      OH2            -3.4318985320      -16.7746067097      -38.4953543836  TIP3      4674            0.0000000000
     36273      4866  TIP3      H1             -4.1728598428      -16.1713674962      -38.6539298921  TIP3      4674            0.0000000000
     36274      4866  TIP3      H2             -3.8780687832      -17.6272156124      -38.2776205286  TIP3      4674            0.0000000000
     36275      4867  TIP3      OH2           -16.1469216205       -1.0042952397      -39.7311836295  TIP3      4675            0.0000000000
     36276      4867  TIP3      H1            -17.1153984924       -1.0503983404      -39.6949549550  TIP3      4675            0.0000000000
     36277      4867  TIP3      H2            -16.0970371457       -0.4007162215      -38.9300656445  TIP3      4675            0.0000000000
     36278      4868  TIP3      OH2           -14.2904329302      -15.1222203252      -41.3108375820  TIP3      4676            0.0000000000
     36279      4868  TIP3      H1            -13.7439181746      -15.6744049915      -41.8663580938  TIP3      4676            0.0000000000
     36280      4868  TIP3      H2            -13.6300995272      -14.7094230360      -40.7242088868  TIP3      4676            0.0000000000
     36281      4869  TIP3      OH2            -9.2554559308      -14.7962319626      -38.9294585395  TIP3      4677            0.0000000000
     36282      4869  TIP3      H1             -9.0008249332      -15.3763765321      -38.1943053257  TIP3      4677            0.0000000000
     36283      4869  TIP3      H2             -9.1992115305      -13.9327952927      -38.4571810578  TIP3      4677            0.0000000000
     36284      4870  TIP3      OH2            -7.3505909638        0.5746753241      -40.4544637186  TIP3      4678            0.0000000000
     36285      4870  TIP3      H1             -6.3929299749        0.5108958693      -40.6473622292  TIP3      4678            0.0000000000
     36286      4870  TIP3      H2             -7.5491387015       -0.1632565066      -41.1004776463  TIP3      4678            0.0000000000
     36287      4871  TIP3      OH2            -0.6282541639       -0.2237076934      -37.7728834369  TIP3      4679            0.0000000000
     36288      4871  TIP3      H1             -0.8291134194       -1.0025118649      -38.3495359712  TIP3      4679            0.0000000000
     36289      4871  TIP3      H2             -0.7102824488        0.5107745809      -38.4097296620  TIP3      4679            0.0000000000
     36290      4872  TIP3      OH2           -15.0154492724      -16.1809005084      -26.0824599954  TIP3      4680            0.0000000000
     36291      4872  TIP3      H1            -15.3802783405      -17.0034650102      -25.7042935235  TIP3      4680            0.0000000000
     36292      4872  TIP3      H2            -14.0860944805      -16.2484419288      -25.7674174110  TIP3      4680            0.0000000000
     36293      4873  TIP3      OH2           -12.9980607974      -16.8389541031      -24.4835917070  TIP3      4681            0.0000000000
     36294      4873  TIP3      H1            -12.1065632665      -17.1513651242      -24.7263883230  TIP3      4681            0.0000000000
     36295      4873  TIP3      H2            -13.3544553619      -17.6460087587      -24.0855545508  TIP3      4681            0.0000000000
     36296      4874  TIP3      OH2           -14.3337486385       -0.0237832190      -41.8785846199  TIP3      4682            0.0000000000
     36297      4874  TIP3      H1            -14.6958693108        0.1730900415      -40.9958911513  TIP3      4682            0.0000000000
     36298      4874  TIP3      H2            -13.6287662451       -0.6341703849      -41.6910172273  TIP3      4682            0.0000000000
     36299      4875  TIP3      OH2            -4.5785463459      -17.4945226459      -24.3151080564  TIP3      4683            0.0000000000
     36300      4875  TIP3      H1             -4.4875797337      -18.0280716144      -23.5277481030  TIP3      4683            0.0000000000
     36301      4875  TIP3      H2             -3.6888640744      -17.5658769620      -24.7252567775  TIP3      4683            0.0000000000
     36302      4876  TIP3      OH2            -1.3510816323       -1.4623160674      -25.7181324692  TIP3      4684            0.0000000000
     36303      4876  TIP3      H1             -2.1909855049       -1.6217392912      -26.1959617343  TIP3      4684            0.0000000000
     36304      4876  TIP3      H2             -1.4917147900       -0.5367045295      -25.4354961996  TIP3      4684            0.0000000000
     36305      4877  TIP3      OH2            13.0504368590       -7.6010123635      -35.6976819360  TIP3      4685            0.0000000000
     36306      4877  TIP3      H1             13.0494310216       -6.6231060083      -35.7525868659  TIP3      4685            0.0000000000
     36307      4877  TIP3      H2             12.3339072742       -7.8403266873      -36.3093412538  TIP3      4685            0.0000000000
     36308      4878  TIP3      OH2            11.9087011522       -8.3459541171      -32.2076999392  TIP3      4686            0.0000000000
     36309      4878  TIP3      H1             11.8986711817       -9.0008762535      -31.4960613627  TIP3      4686            0.0000000000
     36310      4878  TIP3      H2             11.5741275619       -8.8492885725      -32.9664982961  TIP3      4686            0.0000000000
     36311      4879  TIP3      OH2             4.2696103695       -8.6776279053      -30.6599243908  TIP3      4687            0.0000000000
     36312      4879  TIP3      H1              4.3542675726       -9.3572650625      -29.9597770385  TIP3      4687            0.0000000000
     36313      4879  TIP3      H2              5.0139198985       -8.1008655292      -30.4364606059  TIP3      4687            0.0000000000
     36314      4880  TIP3      OH2            15.6046488537       -5.4068235689      -33.9335242714  TIP3      4688            0.0000000000
     36315      4880  TIP3      H1             15.1860520747       -6.1186359099      -33.4401599784  TIP3      4688            0.0000000000
     36316      4880  TIP3      H2             15.6326088195       -4.6990119272      -33.2653046812  TIP3      4688            0.0000000000
     36317      4881  TIP3      OH2             5.1948804101       -4.2264688161      -32.1543089121  TIP3      4689            0.0000000000
     36318      4881  TIP3      H1              4.8788799899       -5.0933986725      -32.4744264352  TIP3      4689            0.0000000000
     36319      4881  TIP3      H2              6.1494555671       -4.4144383456      -32.1022005214  TIP3      4689            0.0000000000
     36320      4882  TIP3      OH2             1.8320743360      -10.6643555841      -36.6718795530  TIP3      4690            0.0000000000
     36321      4882  TIP3      H1              1.3941009573       -9.7928506763      -36.7269419267  TIP3      4690            0.0000000000
     36322      4882  TIP3      H2              1.2674007721      -11.2013972093      -37.2446335475  TIP3      4690            0.0000000000
     36323      4883  TIP3      OH2             2.5414338055       -8.4418434166      -34.5277180639  TIP3      4691            0.0000000000
     36324      4883  TIP3      H1              2.8101143692       -9.2592095947      -34.0676169883  TIP3      4691            0.0000000000
     36325      4883  TIP3      H2              3.2454817533       -8.3381362307      -35.1863512552  TIP3      4691            0.0000000000
     36326      4884  TIP3      OH2            12.7185891238       -0.2511174844      -33.6883851614  TIP3      4692            0.0000000000
     36327      4884  TIP3      H1             13.3662052450       -0.9401507633      -33.9804101601  TIP3      4692            0.0000000000
     36328      4884  TIP3      H2             12.5272054326       -0.5555233989      -32.7959736088  TIP3      4692            0.0000000000
     36329      4885  TIP3      OH2            10.2902855885       -5.9421136292      -31.7437176678  TIP3      4693            0.0000000000
     36330      4885  TIP3      H1             10.6205248045       -6.5747702891      -32.4006796019  TIP3      4693            0.0000000000
     36331      4885  TIP3      H2             11.0967362693       -5.8106177137      -31.2275860464  TIP3      4693            0.0000000000
     36332      4886  TIP3      OH2            18.9382701378      -14.3070111956      -30.9545825018  TIP3      4694            0.0000000000
     36333      4886  TIP3      H1             19.0518356187      -13.6076672796      -30.2882746883  TIP3      4694            0.0000000000
     36334      4886  TIP3      H2             19.4314833748      -13.8895344888      -31.6863598924  TIP3      4694            0.0000000000
     36335      4887  TIP3      OH2            13.4563161552      -11.4796148864      -31.4303044940  TIP3      4695            0.0000000000
     36336      4887  TIP3      H1             13.6151629743      -12.4401131591      -31.4283977602  TIP3      4695            0.0000000000
     36337      4887  TIP3      H2             13.3532222609      -11.3372170356      -32.3912246610  TIP3      4695            0.0000000000
     36338      4888  TIP3      OH2             6.5544334534      -13.4002898523      -34.2052457168  TIP3      4696            0.0000000000
     36339      4888  TIP3      H1              6.6775370138      -12.5595338126      -34.6872343308  TIP3      4696            0.0000000000
     36340      4888  TIP3      H2              6.1802955923      -13.9617744133      -34.9130502761  TIP3      4696            0.0000000000
     36341      4889  TIP3      OH2            14.3103221912      -13.3094186448      -35.8406028346  TIP3      4697            0.0000000000
     36342      4889  TIP3      H1             14.9650353747      -13.6223396678      -35.1732775072  TIP3      4697            0.0000000000
     36343      4889  TIP3      H2             14.8726339359      -12.7415916307      -36.3924560632  TIP3      4697            0.0000000000
     36344      4890  TIP3      OH2             3.1891794410      -10.9741182458      -33.4648708174  TIP3      4698            0.0000000000
     36345      4890  TIP3      H1              3.8745232003      -11.5075035781      -33.0193655744  TIP3      4698            0.0000000000
     36346      4890  TIP3      H2              3.2951858664      -11.2899943814      -34.3791971120  TIP3      4698            0.0000000000
     36347      4891  TIP3      OH2             8.3561327304       -9.4261419596      -34.1667505787  TIP3      4699            0.0000000000
     36348      4891  TIP3      H1              9.0218633139      -10.0059218742      -33.7590038209  TIP3      4699            0.0000000000
     36349      4891  TIP3      H2              7.8338216202      -10.0882445576      -34.6609251598  TIP3      4699            0.0000000000
     36350      4892  TIP3      OH2            19.3428054131      -12.7540552545      -28.7582198901  TIP3      4700            0.0000000000
     36351      4892  TIP3      H1             18.6816911696      -12.0266063403      -28.8995283893  TIP3      4700            0.0000000000
     36352      4892  TIP3      H2             19.4093523580      -12.7290700631      -27.7886815979  TIP3      4700            0.0000000000
     36353      4893  TIP3      OH2             5.4579412306      -14.5158728418      -30.1830540699  TIP3      4701            0.0000000000
     36354      4893  TIP3      H1              5.2122592600      -13.9052269660      -30.9102744117  TIP3      4701            0.0000000000
     36355      4893  TIP3      H2              4.8105876638      -14.2516696080      -29.4872772136  TIP3      4701            0.0000000000
     36356      4894  TIP3      OH2            12.7677052994       -5.0149422060      -36.6239450537  TIP3      4702            0.0000000000
     36357      4894  TIP3      H1             12.4863551081       -5.2915423241      -37.5085451624  TIP3      4702            0.0000000000
     36358      4894  TIP3      H2             12.4614285313       -4.0811451353      -36.5754977939  TIP3      4702            0.0000000000
     36359      4895  TIP3      OH2             8.0018552440       -6.8479033754      -29.9126156958  TIP3      4703            0.0000000000
     36360      4895  TIP3      H1              7.2769856991       -6.2136830991      -29.7217705305  TIP3      4703            0.0000000000
     36361      4895  TIP3      H2              8.6959974588       -6.2501618756      -30.2225250533  TIP3      4703            0.0000000000
     36362      4896  TIP3      OH2            16.1131258447      -13.9649062187      -33.8435299598  TIP3      4704            0.0000000000
     36363      4896  TIP3      H1             15.8983963662      -14.7371523886      -33.3131875980  TIP3      4704            0.0000000000
     36364      4896  TIP3      H2             16.7857625419      -13.5286874306      -33.2932244938  TIP3      4704            0.0000000000
     36365      4897  TIP3      OH2             5.0348804879      -12.6562918962      -32.1438208200  TIP3      4705            0.0000000000
     36366      4897  TIP3      H1              5.6579933070      -11.9629439731      -31.8254496919  TIP3      4705            0.0000000000
     36367      4897  TIP3      H2              5.5715617848      -13.0436490615      -32.8775757565  TIP3      4705            0.0000000000
     36368      4898  TIP3      OH2             6.4257167142       -4.8597514812      -29.1208523028  TIP3      4706            0.0000000000
     36369      4898  TIP3      H1              6.3955130417       -3.9360709600      -29.4415550741  TIP3      4706            0.0000000000
     36370      4898  TIP3      H2              5.5480732585       -4.9313430727      -28.6650375509  TIP3      4706            0.0000000000
     36371      4899  TIP3      OH2             2.5026808785       -5.2295464250      -38.3190329399  TIP3      4707            0.0000000000
     36372      4899  TIP3      H1              2.2902553813       -4.8974208773      -39.2128792891  TIP3      4707            0.0000000000
     36373      4899  TIP3      H2              2.5829475194       -4.3954914367      -37.8073545049  TIP3      4707            0.0000000000
     36374      4900  TIP3      OH2            16.1349568769       -3.5652467199      -31.5763165046  TIP3      4708            0.0000000000
     36375      4900  TIP3      H1             15.1716798982       -3.4524756735      -31.4377809302  TIP3      4708            0.0000000000
     36376      4900  TIP3      H2             16.4020272979       -2.6394189997      -31.7422826517  TIP3      4708            0.0000000000
     36377      4901  TIP3      OH2            16.4818177555      -15.2344354452      -30.1036966394  TIP3      4709            0.0000000000
     36378      4901  TIP3      H1             15.7088909958      -14.6691291430      -30.2663969473  TIP3      4709            0.0000000000
     36379      4901  TIP3      H2             17.1329661169      -14.8666590702      -30.7318785338  TIP3      4709            0.0000000000
     36380      4902  TIP3      OH2             9.4247947867      -17.1614400731      -32.7035568829  TIP3      4710            0.0000000000
     36381      4902  TIP3      H1              9.2841007231      -18.1243556517      -32.7744209621  TIP3      4710            0.0000000000
     36382      4902  TIP3      H2              8.5462363622      -16.8537265402      -32.3994715158  TIP3      4710            0.0000000000
     36383      4903  TIP3      OH2            14.3904369072       -1.7824683879      -34.9649987622  TIP3      4711            0.0000000000
     36384      4903  TIP3      H1             14.8207420454       -2.4985315115      -35.4748780930  TIP3      4711            0.0000000000
     36385      4903  TIP3      H2             14.8125101174       -0.9886663034      -35.3567178319  TIP3      4711            0.0000000000
     36386      4904  TIP3      OH2            15.5968485227       -3.8542053167      -36.4579782409  TIP3      4712            0.0000000000
     36387      4904  TIP3      H1             15.3052863296       -4.5495165320      -37.0726441210  TIP3      4712            0.0000000000
     36388      4904  TIP3      H2             15.6321648102       -4.3442623182      -35.6152306629  TIP3      4712            0.0000000000
     36389      4905  TIP3      OH2            17.2122367688       -5.2562817286      -27.9591734596  TIP3      4713            0.0000000000
     36390      4905  TIP3      H1             17.3599980308       -5.9081668239      -28.6825849893  TIP3      4713            0.0000000000
     36391      4905  TIP3      H2             17.4243546187       -4.4122529988      -28.3949941604  TIP3      4713            0.0000000000
     36392      4906  TIP3      OH2            11.7065959412       -8.3575973726      -38.2052945826  TIP3      4714            0.0000000000
     36393      4906  TIP3      H1             11.0150801048       -7.7852938502      -38.5956145852  TIP3      4714            0.0000000000
     36394      4906  TIP3      H2             12.4185061362       -8.2768379457      -38.8674003157  TIP3      4714            0.0000000000
     36395      4907  TIP3      OH2            11.7528988203       -9.8082261105      -41.1374672363  TIP3      4715            0.0000000000
     36396      4907  TIP3      H1             12.4788739975       -9.8303172798      -40.4914372021  TIP3      4715            0.0000000000
     36397      4907  TIP3      H2             12.0764085575      -10.4667744731      -41.7612710694  TIP3      4715            0.0000000000
     36398      4908  TIP3      OH2            19.0992850973       -8.9540268668      -29.9122094135  TIP3      4716            0.0000000000
     36399      4908  TIP3      H1             18.4439375601       -8.2299069931      -29.8647654192  TIP3      4716            0.0000000000
     36400      4908  TIP3      H2             19.5917802679       -8.7178438083      -30.7183159738  TIP3      4716            0.0000000000
     36401      4909  TIP3      OH2            15.1511459133       -8.1497586973      -37.2533489303  TIP3      4717            0.0000000000
     36402      4909  TIP3      H1             14.4071901765       -7.9110406145      -36.6518239803  TIP3      4717            0.0000000000
     36403      4909  TIP3      H2             15.6260091953       -8.8330934289      -36.7460218413  TIP3      4717            0.0000000000
     36404      4910  TIP3      OH2            15.0822510046       -9.9868244374      -28.1474127513  TIP3      4718            0.0000000000
     36405      4910  TIP3      H1             15.0961892217       -9.1769179249      -27.6075281159  TIP3      4718            0.0000000000
     36406      4910  TIP3      H2             14.4556880733       -9.6894411244      -28.8403828815  TIP3      4718            0.0000000000
     36407      4911  TIP3      OH2             6.7720563642       -7.4972363474      -35.3579520346  TIP3      4719            0.0000000000
     36408      4911  TIP3      H1              6.4515718771       -7.8890039547      -36.2046367528  TIP3      4719            0.0000000000
     36409      4911  TIP3      H2              7.3857484474       -8.1888010937      -35.0219935509  TIP3      4719            0.0000000000
     36410      4912  TIP3      OH2             8.1017856707       -4.1062292474      -32.6691193016  TIP3      4720            0.0000000000
     36411      4912  TIP3      H1              8.0846695917       -4.6385337332      -33.4745588925  TIP3      4720            0.0000000000
     36412      4912  TIP3      H2              8.8842793156       -4.4636812329      -32.2136708324  TIP3      4720            0.0000000000
     36413      4913  TIP3      OH2             7.1043945871       -8.7524429745      -31.6995688237  TIP3      4721            0.0000000000
     36414      4913  TIP3      H1              7.6594441005       -8.6454407302      -32.4966034575  TIP3      4721            0.0000000000
     36415      4913  TIP3      H2              7.4826495460       -8.0892225236      -31.0844424733  TIP3      4721            0.0000000000
     36416      4914  TIP3      OH2            13.5177181241       -3.1735543625      -30.9843867245  TIP3      4722            0.0000000000
     36417      4914  TIP3      H1             13.2027639535       -2.5491015492      -30.3419195025  TIP3      4722            0.0000000000
     36418      4914  TIP3      H2             13.2602786640       -4.0389228835      -30.5784569894  TIP3      4722            0.0000000000
     36419      4915  TIP3      OH2             8.0526688776       -4.3210244485      -27.0207326148  TIP3      4723            0.0000000000
     36420      4915  TIP3      H1              7.6671106257       -3.5803444304      -26.5149961917  TIP3      4723            0.0000000000
     36421      4915  TIP3      H2              7.3671555763       -4.5163478122      -27.6991256322  TIP3      4723            0.0000000000
     36422      4916  TIP3      OH2            14.0353963151       -8.9787914986      -39.5945402770  TIP3      4724            0.0000000000
     36423      4916  TIP3      H1             14.5840311755       -8.7792197511      -38.7965200330  TIP3      4724            0.0000000000
     36424      4916  TIP3      H2             14.4432065626       -8.4391366728      -40.2987772359  TIP3      4724            0.0000000000
     36425      4917  TIP3      OH2             4.9861029590       -8.1582214576      -27.8518880557  TIP3      4725            0.0000000000
     36426      4917  TIP3      H1              5.0386058380       -7.5201301540      -27.1133396568  TIP3      4725            0.0000000000
     36427      4917  TIP3      H2              4.0483181606       -8.0574620109      -28.0671548635  TIP3      4725            0.0000000000
     36428      4918  TIP3      OH2            11.7396847663       -2.2413533701      -36.1255494183  TIP3      4726            0.0000000000
     36429      4918  TIP3      H1             12.1827143140       -1.9251984114      -35.3320091390  TIP3      4726            0.0000000000
     36430      4918  TIP3      H2             11.1890892901       -1.4907272265      -36.3806063744  TIP3      4726            0.0000000000
     36431      4919  TIP3      OH2             6.3082118608       -2.2857061769      -26.2529733382  TIP3      4727            0.0000000000
     36432      4919  TIP3      H1              6.2610112766       -2.3937119128      -27.2155894204  TIP3      4727            0.0000000000
     36433      4919  TIP3      H2              5.3773778178       -2.4239831947      -25.9902479979  TIP3      4727            0.0000000000
     36434      4920  TIP3      OH2            17.7458054086      -17.1958752192      -39.7560134085  TIP3      4728            0.0000000000
     36435      4920  TIP3      H1             16.8011858384      -17.1236318963      -39.4646871988  TIP3      4728            0.0000000000
     36436      4920  TIP3      H2             17.9577775484      -16.3320766429      -40.1337762402  TIP3      4728            0.0000000000
     36437      4921  TIP3      OH2             5.7459991483       -8.4674017462      -37.7541174266  TIP3      4729            0.0000000000
     36438      4921  TIP3      H1              5.4604505631       -7.6914979532      -38.2735794627  TIP3      4729            0.0000000000
     36439      4921  TIP3      H2              5.0886072514       -9.1320191765      -37.9738549890  TIP3      4729            0.0000000000
     36440      4922  TIP3      OH2            18.8583238510       -2.8956202371      -41.3411876253  TIP3      4730            0.0000000000
     36441      4922  TIP3      H1             18.9815278004       -1.9387844391      -41.2120483956  TIP3      4730            0.0000000000
     36442      4922  TIP3      H2             19.7895198505       -3.1704844155      -41.4080346809  TIP3      4730            0.0000000000
     36443      4923  TIP3      OH2             1.8488215852       -6.0486443118      -28.8766548563  TIP3      4731            0.0000000000
     36444      4923  TIP3      H1              1.3810916185       -6.1295595620      -29.7248988981  TIP3      4731            0.0000000000
     36445      4923  TIP3      H2              1.9029152823       -6.9927549044      -28.6355429443  TIP3      4731            0.0000000000
     36446      4924  TIP3      OH2             1.5947369277       -3.3108145482      -32.0693229415  TIP3      4732            0.0000000000
     36447      4924  TIP3      H1              2.5528735777       -3.4284588174      -32.0877700506  TIP3      4732            0.0000000000
     36448      4924  TIP3      H2              1.5097936763       -2.4962071785      -31.5588701624  TIP3      4732            0.0000000000
     36449      4925  TIP3      OH2            19.7881902161       -2.6004322668      -26.4249540138  TIP3      4733            0.0000000000
     36450      4925  TIP3      H1             19.7197612171       -3.5666761426      -26.4011904042  TIP3      4733            0.0000000000
     36451      4925  TIP3      H2             18.9608567724       -2.3779157315      -25.9678533950  TIP3      4733            0.0000000000
     36452      4926  TIP3      OH2            11.2189048463        0.6758879068      -37.7214023613  TIP3      4734            0.0000000000
     36453      4926  TIP3      H1             11.1430990321        0.6121782998      -38.6899354146  TIP3      4734            0.0000000000
     36454      4926  TIP3      H2             11.2527250463        1.6382544158      -37.5636405236  TIP3      4734            0.0000000000
     36455      4927  TIP3      OH2             4.8679802119       -0.4451831695      -35.8992803195  TIP3      4735            0.0000000000
     36456      4927  TIP3      H1              5.0124265613       -0.8597674484      -35.0203445641  TIP3      4735            0.0000000000
     36457      4927  TIP3      H2              4.0195175978       -0.8516610715      -36.1388085755  TIP3      4735            0.0000000000
     36458      4928  TIP3      OH2            14.2544018060       -0.1198233574      -40.7558745222  TIP3      4736            0.0000000000
     36459      4928  TIP3      H1             14.7297951502       -0.8747610391      -41.1684952669  TIP3      4736            0.0000000000
     36460      4928  TIP3      H2             14.3263871597       -0.3629826749      -39.8127873334  TIP3      4736            0.0000000000
     36461      4929  TIP3      OH2            13.9729215538       -0.1758966809      -37.9580782166  TIP3      4737            0.0000000000
     36462      4929  TIP3      H1             13.0163909036       -0.1071654545      -37.7717595218  TIP3      4737            0.0000000000
     36463      4929  TIP3      H2             14.2248988022       -0.9169939251      -37.3873044748  TIP3      4737            0.0000000000
     36464      4930  TIP3      OH2            16.9917607113      -11.1478005010      -25.9397497895  TIP3      4738            0.0000000000
     36465      4930  TIP3      H1             16.5014944042      -10.6623953243      -26.6246717452  TIP3      4738            0.0000000000
     36466      4930  TIP3      H2             16.9583617948      -12.0641696262      -26.2276703398  TIP3      4738            0.0000000000
     36467      4931  TIP3      OH2             4.1075531626       -4.7258910881      -27.9019848581  TIP3      4739            0.0000000000
     36468      4931  TIP3      H1              4.3447728673       -5.0971839726      -27.0204533893  TIP3      4739            0.0000000000
     36469      4931  TIP3      H2              3.2415566079       -5.1339820401      -28.1096715996  TIP3      4739            0.0000000000
     36470      4932  TIP3      OH2             6.8276960080      -16.2625475345      -31.9296722174  TIP3      4740            0.0000000000
     36471      4932  TIP3      H1              5.9326488760      -16.3677726530      -32.3142841185  TIP3      4740            0.0000000000
     36472      4932  TIP3      H2              6.7014417379      -15.4214424105      -31.4602715625  TIP3      4740            0.0000000000
     36473      4933  TIP3      OH2            11.4394524736      -16.5785242861      -28.5629009988  TIP3      4741            0.0000000000
     36474      4933  TIP3      H1             11.8200646616      -17.0101004327      -27.7787271094  TIP3      4741            0.0000000000
     36475      4933  TIP3      H2             10.4648186131      -16.7050492167      -28.4327525761  TIP3      4741            0.0000000000
     36476      4934  TIP3      OH2            14.7552091207      -12.7509668542      -27.6755244305  TIP3      4742            0.0000000000
     36477      4934  TIP3      H1             14.1556602629      -12.9434495162      -26.9191227427  TIP3      4742            0.0000000000
     36478      4934  TIP3      H2             14.5438111378      -11.8327940327      -27.9277479532  TIP3      4742            0.0000000000
     36479      4935  TIP3      OH2            15.5627374009       -7.8891757872      -41.7713932868  TIP3      4743            0.0000000000
     36480      4935  TIP3      H1             15.5603996039       -8.0581869274      -42.7306203028  TIP3      4743            0.0000000000
     36481      4935  TIP3      H2             16.4315762689       -7.4588483763      -41.6699989605  TIP3      4743            0.0000000000
     36482      4936  TIP3      OH2            11.0851651383      -14.0175387131      -41.2485056423  TIP3      4744            0.0000000000
     36483      4936  TIP3      H1             10.7699915162      -14.0653396237      -40.3278401215  TIP3      4744            0.0000000000
     36484      4936  TIP3      H2             10.8081344988      -14.8961268166      -41.5370715294  TIP3      4744            0.0000000000
     36485      4937  TIP3      OH2             6.8920120511      -11.2880653001      -30.7068750504  TIP3      4745            0.0000000000
     36486      4937  TIP3      H1              6.1565535948      -11.3016671375      -30.0636224356  TIP3      4745            0.0000000000
     36487      4937  TIP3      H2              6.8534254815      -10.3746595704      -31.0688515631  TIP3      4745            0.0000000000
     36488      4938  TIP3      OH2             6.8546122823      -11.1616566136      -35.8394399409  TIP3      4746            0.0000000000
     36489      4938  TIP3      H1              5.9205735732      -11.4214516118      -35.9724145480  TIP3      4746            0.0000000000
     36490      4938  TIP3      H2              7.2380793870      -11.4576174941      -36.6885659581  TIP3      4746            0.0000000000
     36491      4939  TIP3      OH2            12.3787541176      -10.6755527073      -37.0921813806  TIP3      4747            0.0000000000
     36492      4939  TIP3      H1             11.9744104370       -9.8377297690      -37.4117301934  TIP3      4747            0.0000000000
     36493      4939  TIP3      H2             13.0738000713      -10.8231513674      -37.7607287854  TIP3      4747            0.0000000000
     36494      4940  TIP3      OH2            11.4281582114      -10.4392306147      -25.5840778217  TIP3      4748            0.0000000000
     36495      4940  TIP3      H1             10.8902337933      -11.2225461249      -25.3170104212  TIP3      4748            0.0000000000
     36496      4940  TIP3      H2             12.2844918832      -10.5890007670      -25.1776660928  TIP3      4748            0.0000000000
     36497      4941  TIP3      OH2            13.4117550935      -11.1798251404      -34.2221183946  TIP3      4749            0.0000000000
     36498      4941  TIP3      H1             13.1362872188      -10.6151640475      -34.9648129108  TIP3      4749            0.0000000000
     36499      4941  TIP3      H2             13.5130487271      -12.0279817605      -34.6946413541  TIP3      4749            0.0000000000
     36500      4942  TIP3      OH2             4.5259799930      -11.0320255633      -29.0086012019  TIP3      4750            0.0000000000
     36501      4942  TIP3      H1              4.6013786776      -10.6155921374      -28.1313372732  TIP3      4750            0.0000000000
     36502      4942  TIP3      H2              4.0836212032      -11.8711548040      -28.8100295991  TIP3      4750            0.0000000000
     36503      4943  TIP3      OH2             8.0597785989      -13.4113481009      -41.8473274081  TIP3      4751            0.0000000000
     36504      4943  TIP3      H1              7.5193527270      -14.0446639221      -41.3324243142  TIP3      4751            0.0000000000
     36505      4943  TIP3      H2              7.4474276307      -13.0584583375      -42.4935966313  TIP3      4751            0.0000000000
     36506      4944  TIP3      OH2             1.1622933198      -13.9782056309      -35.0313319089  TIP3      4752            0.0000000000
     36507      4944  TIP3      H1              1.8547041658      -13.9074982750      -34.3510573515  TIP3      4752            0.0000000000
     36508      4944  TIP3      H2              1.6313930239      -14.2723589469      -35.8334197538  TIP3      4752            0.0000000000
     36509      4945  TIP3      OH2             2.4731476824      -13.1895891053      -39.6689602771  TIP3      4753            0.0000000000
     36510      4945  TIP3      H1              2.9625986577      -12.5990119622      -40.2769374000  TIP3      4753            0.0000000000
     36511      4945  TIP3      H2              1.7822589221      -12.5643792964      -39.3626149859  TIP3      4753            0.0000000000
     36512      4946  TIP3      OH2            12.6109600188       -9.5860860235      -29.6602418050  TIP3      4754            0.0000000000
     36513      4946  TIP3      H1             12.9838813814      -10.2668471626      -30.2551265651  TIP3      4754            0.0000000000
     36514      4946  TIP3      H2             12.1513180988      -10.1206488125      -28.9893336102  TIP3      4754            0.0000000000
     36515      4947  TIP3      OH2             9.4130736087      -13.6163054387      -34.8266050264  TIP3      4755            0.0000000000
     36516      4947  TIP3      H1              8.4829027963      -13.6114186830      -34.5358701923  TIP3      4755            0.0000000000
     36517      4947  TIP3      H2              9.8991851308      -13.7738647239      -34.0055319036  TIP3      4755            0.0000000000
     36518      4948  TIP3      OH2             4.2203227329      -12.0623364107      -35.9569502032  TIP3      4756            0.0000000000
     36519      4948  TIP3      H1              3.3379076204      -11.9113346054      -36.3530315547  TIP3      4756            0.0000000000
     36520      4948  TIP3      H2              4.5231137928      -12.8815116588      -36.3836331114  TIP3      4756            0.0000000000
     36521      4949  TIP3      OH2             7.8614937301      -11.9989495352      -38.3294563803  TIP3      4757            0.0000000000
     36522      4949  TIP3      H1              8.8204427189      -11.9002240360      -38.1641093386  TIP3      4757            0.0000000000
     36523      4949  TIP3      H2              7.6362122717      -11.3478879267      -39.0154017841  TIP3      4757            0.0000000000
     36524      4950  TIP3      OH2            13.8141873809      -14.3763504309      -31.5862564577  TIP3      4758            0.0000000000
     36525      4950  TIP3      H1             13.1294383963      -14.3246489953      -30.8839186392  TIP3      4758            0.0000000000
     36526      4950  TIP3      H2             13.3090168193      -14.6252450877      -32.3737927359  TIP3      4758            0.0000000000
     36527      4951  TIP3      OH2             6.5649423010      -10.8418374407      -40.7348746999  TIP3      4759            0.0000000000
     36528      4951  TIP3      H1              6.0074104546      -11.1923451486      -41.4508579691  TIP3      4759            0.0000000000
     36529      4951  TIP3      H2              7.3887899985      -10.6261062884      -41.1993971846  TIP3      4759            0.0000000000
     36530      4952  TIP3      OH2            17.0688768837        1.2378085285      -25.2611681975  TIP3      4760            0.0000000000
     36531      4952  TIP3      H1             17.3096797955        1.6413670321      -26.0976862271  TIP3      4760            0.0000000000
     36532      4952  TIP3      H2             17.7565105445        1.5729499083      -24.6689703340  TIP3      4760            0.0000000000
     36533      4953  TIP3      OH2             4.7000169733       -6.2322484769      -25.7128563901  TIP3      4761            0.0000000000
     36534      4953  TIP3      H1              5.4157642714       -6.0154576510      -25.0914433483  TIP3      4761            0.0000000000
     36535      4953  TIP3      H2              3.9282367780       -6.1497398325      -25.1097083079  TIP3      4761            0.0000000000
     36536      4954  TIP3      OH2            10.6946130820      -10.8592910438      -32.9380677600  TIP3      4762            0.0000000000
     36537      4954  TIP3      H1             11.2946531055      -11.3933397262      -33.4723097304  TIP3      4762            0.0000000000
     36538      4954  TIP3      H2             10.5536164487      -11.4054634553      -32.1532797331  TIP3      4762            0.0000000000
     36539      4955  TIP3      OH2             5.7004519014      -14.7345045411      -36.4850100323  TIP3      4763            0.0000000000
     36540      4955  TIP3      H1              5.4253569709      -15.6578090932      -36.5477037159  TIP3      4763            0.0000000000
     36541      4955  TIP3      H2              6.4911491804      -14.7596130554      -37.0455271874  TIP3      4763            0.0000000000
     36542      4956  TIP3      OH2             9.3353247556      -12.5279568149      -30.5230001997  TIP3      4764            0.0000000000
     36543      4956  TIP3      H1              8.5103855567      -12.0119836396      -30.4308919433  TIP3      4764            0.0000000000
     36544      4956  TIP3      H2              9.8886286624      -12.1807262866      -29.7956614282  TIP3      4764            0.0000000000
     36545      4957  TIP3      OH2             9.9278912224       -6.3122244528      -38.8216847312  TIP3      4765            0.0000000000
     36546      4957  TIP3      H1              9.1248530924       -6.7828153824      -39.1357556086  TIP3      4765            0.0000000000
     36547      4957  TIP3      H2              9.7134855422       -6.2009790552      -37.8732597299  TIP3      4765            0.0000000000
     36548      4958  TIP3      OH2            17.1052268426       -7.1129536277      -30.0244397959  TIP3      4766            0.0000000000
     36549      4958  TIP3      H1             17.6729007722       -6.6264022206      -30.6497215448  TIP3      4766            0.0000000000
     36550      4958  TIP3      H2             16.2460213154       -7.0524079876      -30.4902130246  TIP3      4766            0.0000000000
     36551      4959  TIP3      OH2            13.7944201363      -13.5094441106      -40.6388839975  TIP3      4767            0.0000000000
     36552      4959  TIP3      H1             12.8479635616      -13.3555373809      -40.8092272676  TIP3      4767            0.0000000000
     36553      4959  TIP3      H2             14.0912601597      -12.6357329702      -40.3276412028  TIP3      4767            0.0000000000
     36554      4960  TIP3      OH2            11.4314101893       -6.0457538185      -27.5963974901  TIP3      4768            0.0000000000
     36555      4960  TIP3      H1             11.0619824225       -6.4986779338      -26.8193473654  TIP3      4768            0.0000000000
     36556      4960  TIP3      H2             11.1384841909       -5.1474365240      -27.4651685064  TIP3      4768            0.0000000000
     36557      4961  TIP3      OH2            14.4943171159      -11.5703892401      -38.9732345070  TIP3      4769            0.0000000000
     36558      4961  TIP3      H1             15.3929675481      -11.7102688595      -38.6169341946  TIP3      4769            0.0000000000
     36559      4961  TIP3      H2             14.5816027993      -10.7642723690      -39.5045298190  TIP3      4769            0.0000000000
     36560      4962  TIP3      OH2             5.0334005180       -6.9165455881      -33.0268708835  TIP3      4770            0.0000000000
     36561      4962  TIP3      H1              5.7245156605       -6.9934909316      -33.7126784781  TIP3      4770            0.0000000000
     36562      4962  TIP3      H2              5.0936620933       -7.7759422231      -32.5721308742  TIP3      4770            0.0000000000
     36563      4963  TIP3      OH2            12.0012144863       -4.8306678497      -39.8138372725  TIP3      4771            0.0000000000
     36564      4963  TIP3      H1             11.6672943659       -3.9973514582      -39.4208839182  TIP3      4771            0.0000000000
     36565      4963  TIP3      H2             11.2842094671       -5.4624649865      -39.5689404008  TIP3      4771            0.0000000000
     36566      4964  TIP3      OH2             2.0242294884       -8.5092494135      -27.7774795445  TIP3      4772            0.0000000000
     36567      4964  TIP3      H1              2.2010950526       -8.9415912153      -26.9226449149  TIP3      4772            0.0000000000
     36568      4964  TIP3      H2              1.3916382720       -9.1197366599      -28.1957665046  TIP3      4772            0.0000000000
     36569      4965  TIP3      OH2             9.0298708329       -8.9705052084      -25.5650386916  TIP3      4773            0.0000000000
     36570      4965  TIP3      H1              8.7222652344       -9.2135055153      -26.4493615339  TIP3      4773            0.0000000000
     36571      4965  TIP3      H2              9.9641143293       -9.2413568936      -25.5876845301  TIP3      4773            0.0000000000
     36572      4966  TIP3      OH2            13.7325050426       -3.6660774970      -27.6495831792  TIP3      4774            0.0000000000
     36573      4966  TIP3      H1             12.8273813246       -3.4854095030      -27.9208137396  TIP3      4774            0.0000000000
     36574      4966  TIP3      H2             13.7052727415       -3.3835811855      -26.7326817102  TIP3      4774            0.0000000000
     36575      4967  TIP3      OH2            19.3933738062      -11.4385310805      -39.2322659046  TIP3      4775            0.0000000000
     36576      4967  TIP3      H1             18.8269146697      -11.7482303961      -39.9603926101  TIP3      4775            0.0000000000
     36577      4967  TIP3      H2             19.4693349907      -10.4988711269      -39.5107850239  TIP3      4775            0.0000000000
     36578      4968  TIP3      OH2            19.3713630247       -5.5680589816      -26.4329718881  TIP3      4776            0.0000000000
     36579      4968  TIP3      H1             18.4822064747       -5.3570275558      -26.8064646774  TIP3      4776            0.0000000000
     36580      4968  TIP3      H2             19.9338183416       -5.6211194209      -27.2318067380  TIP3      4776            0.0000000000
     36581      4969  TIP3      OH2            17.6875910819       -2.6054182909      -38.8499179276  TIP3      4777            0.0000000000
     36582      4969  TIP3      H1             17.3138237227       -3.4330843623      -38.5191851558  TIP3      4777            0.0000000000
     36583      4969  TIP3      H2             17.9834120493       -2.8043421729      -39.7584443284  TIP3      4777            0.0000000000
     36584      4970  TIP3      OH2            14.8840078625       -7.7891562426      -31.7430061418  TIP3      4778            0.0000000000
     36585      4970  TIP3      H1             13.9449369910       -8.0036435426      -31.8533726294  TIP3      4778            0.0000000000
     36586      4970  TIP3      H2             15.3162633299       -8.5507145324      -32.1717306254  TIP3      4778            0.0000000000
     36587      4971  TIP3      OH2             7.4041398885       -3.4601798888      -35.6420274668  TIP3      4779            0.0000000000
     36588      4971  TIP3      H1              7.9065015967       -2.6562229554      -35.8483598779  TIP3      4779            0.0000000000
     36589      4971  TIP3      H2              6.5255213577       -3.2251408916      -35.9704638610  TIP3      4779            0.0000000000
     36590      4972  TIP3      OH2             3.1358047694       -8.6008042828      -41.1073135576  TIP3      4780            0.0000000000
     36591      4972  TIP3      H1              3.7602658973       -7.9751645505      -40.6934365735  TIP3      4780            0.0000000000
     36592      4972  TIP3      H2              2.2668596068       -8.3157010469      -40.7770524006  TIP3      4780            0.0000000000
     36593      4973  TIP3      OH2             8.8274041172       -5.7978275122      -36.1151376604  TIP3      4781            0.0000000000
     36594      4973  TIP3      H1              8.5171794393       -4.8738571413      -36.0385749464  TIP3      4781            0.0000000000
     36595      4973  TIP3      H2              8.0982240483       -6.2808654046      -35.6783259802  TIP3      4781            0.0000000000
     36596      4974  TIP3      OH2             9.2780050968       -1.6183843662      -29.7586182768  TIP3      4782            0.0000000000
     36597      4974  TIP3      H1              9.7300369460       -0.7911299496      -29.9952401901  TIP3      4782            0.0000000000
     36598      4974  TIP3      H2              9.8495717873       -1.9101818972      -29.0383616647  TIP3      4782            0.0000000000
     36599      4975  TIP3      OH2             7.5014977591       -0.7940867292      -36.5995815403  TIP3      4783            0.0000000000
     36600      4975  TIP3      H1              6.5355050199       -0.6592870046      -36.4567636330  TIP3      4783            0.0000000000
     36601      4975  TIP3      H2              7.8595238389        0.0381149661      -36.2379180676  TIP3      4783            0.0000000000
     36602      4976  TIP3      OH2            12.8462742262       -5.5570790347      -30.0489499316  TIP3      4784            0.0000000000
     36603      4976  TIP3      H1             12.4421781295       -5.8319863373      -29.2006508860  TIP3      4784            0.0000000000
     36604      4976  TIP3      H2             13.4287491979       -6.3103620359      -30.2639303643  TIP3      4784            0.0000000000
     36605      4977  TIP3      OH2            15.0825723583       -4.5795590869      -40.9778407571  TIP3      4785            0.0000000000
     36606      4977  TIP3      H1             15.3991372295       -5.0191540016      -40.1637021158  TIP3      4785            0.0000000000
     36607      4977  TIP3      H2             14.1317115059       -4.7304036676      -40.8852855271  TIP3      4785            0.0000000000
     36608      4978  TIP3      OH2            19.6145094852       -0.1565401352      -40.7576577139  TIP3      4786            0.0000000000
     36609      4978  TIP3      H1             20.3063552608        0.4873551941      -40.9756369469  TIP3      4786            0.0000000000
     36610      4978  TIP3      H2             18.8904368169        0.4387029267      -40.4576530582  TIP3      4786            0.0000000000
     36611      4979  TIP3      OH2             3.6681055619      -13.7701928553      -28.1750481363  TIP3      4787            0.0000000000
     36612      4979  TIP3      H1              2.7589337500      -13.4360270869      -28.2683224938  TIP3      4787            0.0000000000
     36613      4979  TIP3      H2              3.5573887535      -14.6361989242      -27.7536754647  TIP3      4787            0.0000000000
     36614      4980  TIP3      OH2            15.9173204341       -5.9126139752      -38.7570979451  TIP3      4788            0.0000000000
     36615      4980  TIP3      H1             15.6744677770       -6.7112699425      -38.2429148388  TIP3      4788            0.0000000000
     36616      4980  TIP3      H2             16.8649135930       -5.8466582401      -38.5533311914  TIP3      4788            0.0000000000
     36617      4981  TIP3      OH2             3.2893734600       -1.9848932873      -29.7861950879  TIP3      4789            0.0000000000
     36618      4981  TIP3      H1              3.5808165862       -2.9096434676      -29.7806092296  TIP3      4789            0.0000000000
     36619      4981  TIP3      H2              3.5502202982       -1.6987050289      -28.9030909026  TIP3      4789            0.0000000000
     36620      4982  TIP3      OH2             8.0690812980       -3.9047704846      -40.0966647810  TIP3      4790            0.0000000000
     36621      4982  TIP3      H1              8.2810501728       -4.4592387716      -39.3310430943  TIP3      4790            0.0000000000
     36622      4982  TIP3      H2              8.1109332373       -2.9963054583      -39.7312597154  TIP3      4790            0.0000000000
     36623      4983  TIP3      OH2             4.5260957556       -6.6769620096      -39.6263553800  TIP3      4791            0.0000000000
     36624      4983  TIP3      H1              3.8691479193       -6.2781467930      -39.0164075631  TIP3      4791            0.0000000000
     36625      4983  TIP3      H2              5.0966933326       -5.9183008828      -39.8377832227  TIP3      4791            0.0000000000
     36626      4984  TIP3      OH2            12.4061132426      -13.9938961656      -29.2713985880  TIP3      4792            0.0000000000
     36627      4984  TIP3      H1             13.1215543074      -13.9491144378      -28.6289216930  TIP3      4792            0.0000000000
     36628      4984  TIP3      H2             12.0112622383      -14.8696491017      -29.0851686205  TIP3      4792            0.0000000000
     36629      4985  TIP3      OH2            13.1417417585      -14.4117592122      -38.1550053804  TIP3      4793            0.0000000000
     36630      4985  TIP3      H1             13.3939533271      -13.9536380019      -38.9835204981  TIP3      4793            0.0000000000
     36631      4985  TIP3      H2             13.7326087933      -13.9853282035      -37.5244825435  TIP3      4793            0.0000000000
     36632      4986  TIP3      OH2            10.8338525991       -2.2615431785      -39.3492617159  TIP3      4794            0.0000000000
     36633      4986  TIP3      H1             10.0153089633       -1.7422816082      -39.2937971706  TIP3      4794            0.0000000000
     36634      4986  TIP3      H2             11.3862336144       -1.7434170677      -39.9588278383  TIP3      4794            0.0000000000
     36635      4987  TIP3      OH2            10.3712252963      -12.6793353661      -37.3566113355  TIP3      4795            0.0000000000
     36636      4987  TIP3      H1             11.1611951622      -12.1035471486      -37.3254233258  TIP3      4795            0.0000000000
     36637      4987  TIP3      H2             10.1115205095      -12.8041989729      -36.4265795612  TIP3      4795            0.0000000000
     36638      4988  TIP3      OH2            10.9232968237      -11.6600804653      -28.1885047954  TIP3      4796            0.0000000000
     36639      4988  TIP3      H1             11.0060570628      -11.0764160651      -27.4134518886  TIP3      4796            0.0000000000
     36640      4988  TIP3      H2             11.5864820902      -12.3490845418      -28.0707326353  TIP3      4796            0.0000000000
     36641      4989  TIP3      OH2            11.2276129578      -15.6151213966      -36.4716019422  TIP3      4797            0.0000000000
     36642      4989  TIP3      H1             10.9081063404      -14.9669120903      -35.8217891719  TIP3      4797            0.0000000000
     36643      4989  TIP3      H2             11.9245050736      -15.0701500019      -36.9152511301  TIP3      4797            0.0000000000
     36644      4990  TIP3      OH2             8.2016481043       -1.2190328862      -39.3219975569  TIP3      4798            0.0000000000
     36645      4990  TIP3      H1              8.3790983579       -0.3989992364      -39.8282218290  TIP3      4798            0.0000000000
     36646      4990  TIP3      H2              7.9635135578       -0.8755746463      -38.4311351954  TIP3      4798            0.0000000000
     36647      4991  TIP3      OH2             6.8930824554      -14.5332446506      -39.7145110310  TIP3      4799            0.0000000000
     36648      4991  TIP3      H1              6.8299861527      -13.6134338745      -39.3844927840  TIP3      4799            0.0000000000
     36649      4991  TIP3      H2              7.8073850526      -14.7568405169      -39.4571394903  TIP3      4799            0.0000000000
     36650      4992  TIP3      OH2            17.1469870095      -13.7977567260      -27.3542600245  TIP3      4800            0.0000000000
     36651      4992  TIP3      H1             16.2057363086      -13.4692420880      -27.4051232266  TIP3      4800            0.0000000000
     36652      4992  TIP3      H2             17.3263603654      -13.7553166575      -28.3008852055  TIP3      4800            0.0000000000
     36653      4993  TIP3      OH2            15.7279110061       -9.9977695437      -33.2992746949  TIP3      4801            0.0000000000
     36654      4993  TIP3      H1             14.9027377012      -10.4381286579      -33.5803670202  TIP3      4801            0.0000000000
     36655      4993  TIP3      H2             16.2006530827      -10.6877635548      -32.7833282037  TIP3      4801            0.0000000000
     36656      4994  TIP3      OH2             5.1297283647       -4.0635981696      -40.6994490495  TIP3      4802            0.0000000000
     36657      4994  TIP3      H1              5.7911092887       -3.4366923978      -40.3908229416  TIP3      4802            0.0000000000
     36658      4994  TIP3      H2              5.6392596878       -4.5405129812      -41.3805580217  TIP3      4802            0.0000000000
     36659      4995  TIP3      OH2             3.5264184416      -11.3900358945      -41.5249103192  TIP3      4803            0.0000000000
     36660      4995  TIP3      H1              3.4829080581      -10.4275630978      -41.3953310759  TIP3      4803            0.0000000000
     36661      4995  TIP3      H2              2.6499937588      -11.5986987328      -41.8709427060  TIP3      4803            0.0000000000
     36662      4996  TIP3      OH2            16.7963426065       -0.7565963887      -31.6683899956  TIP3      4804            0.0000000000
     36663      4996  TIP3      H1             16.6904518519       -0.0400862553      -32.3217888803  TIP3      4804            0.0000000000
     36664      4996  TIP3      H2             17.7508743933       -0.6731135307      -31.4584684595  TIP3      4804            0.0000000000
     36665      4997  TIP3      OH2             4.3794410348      -16.5709580177      -32.8069585324  TIP3      4805            0.0000000000
     36666      4997  TIP3      H1              4.2896296162      -16.5509877761      -33.7927558480  TIP3      4805            0.0000000000
     36667      4997  TIP3      H2              4.1109604950      -17.4699043113      -32.5125422768  TIP3      4805            0.0000000000
     36668      4998  TIP3      OH2             3.2419169057       -2.6958007602      -36.6900596881  TIP3      4806            0.0000000000
     36669      4998  TIP3      H1              2.3855915913       -2.2432682246      -36.7221065249  TIP3      4806            0.0000000000
     36670      4998  TIP3      H2              3.7186266788       -2.2221143305      -37.3829338844  TIP3      4806            0.0000000000
     36671      4999  TIP3      OH2             2.4750461131       -0.0502020463      -25.4124860298  TIP3      4807            0.0000000000
     36672      4999  TIP3      H1              3.0530474423       -0.2524506923      -24.6573592433  TIP3      4807            0.0000000000
     36673      4999  TIP3      H2              2.0423647955       -0.9079319360      -25.5793939201  TIP3      4807            0.0000000000
     36674      5000  TIP3      OH2             7.0919413560       -1.1453063554      -23.7843148773  TIP3      4808            0.0000000000
     36675      5000  TIP3      H1              7.8844815339       -1.5969291990      -23.4616739097  TIP3      4808            0.0000000000
     36676      5000  TIP3      H2              7.0630545267       -1.4129717715      -24.7275002174  TIP3      4808            0.0000000000
     36677      5001  TIP3      OH2            11.6046357019       -1.5502590912      -41.8282712573  TIP3      4809            0.0000000000
     36678      5001  TIP3      H1             10.7676993848       -2.0389710762      -41.9008092403  TIP3      4809            0.0000000000
     36679      5001  TIP3      H2             12.1184730938       -2.0050559846      -42.4937396096  TIP3      4809            0.0000000000
     36680      5002  TIP3      OH2            15.8338627646       -1.8327458863      -42.1887729135  TIP3      4810            0.0000000000
     36681      5002  TIP3      H1             16.0839585707       -2.6469636172      -41.7116507683  TIP3      4810            0.0000000000
     36682      5002  TIP3      H2             16.6114870640       -1.6317534733      -42.7244294330  TIP3      4810            0.0000000000
     36683      5003  TIP3      OH2             2.3939704917       -6.2666728453      -24.4180892019  TIP3      4811            0.0000000000
     36684      5003  TIP3      H1              2.5333778525       -7.1750744955      -24.7297538668  TIP3      4811            0.0000000000
     36685      5003  TIP3      H2              1.6019884557       -6.0124995358      -24.9301558632  TIP3      4811            0.0000000000
     36686      5004  TIP3      OH2             6.8274350299       -5.8343018551      -42.2422925899  TIP3      4812            0.0000000000
     36687      5004  TIP3      H1              6.8184543951       -6.6772665505      -41.7693704147  TIP3      4812            0.0000000000
     36688      5004  TIP3      H2              7.3398743396       -6.1112352264      -43.0139988567  TIP3      4812            0.0000000000
     36689      5005  TIP3      OH2             9.1038830042       -6.2915507394      -25.0155971837  TIP3      4813            0.0000000000
     36690      5005  TIP3      H1              8.7322150587       -5.9757381440      -25.8566399365  TIP3      4813            0.0000000000
     36691      5005  TIP3      H2              9.1639225255       -7.2608395236      -25.1184493638  TIP3      4813            0.0000000000
     36692      5006  TIP3      OH2            14.7761726228       -6.4055654211      -27.6298928281  TIP3      4814            0.0000000000
     36693      5006  TIP3      H1             15.5687442277       -5.8334126074      -27.7137545411  TIP3      4814            0.0000000000
     36694      5006  TIP3      H2             14.0606459829       -5.7582186603      -27.5788040884  TIP3      4814            0.0000000000
     36695      5007  TIP3      OH2             3.2502026016       -9.0381663866      -25.0292548852  TIP3      4815            0.0000000000
     36696      5007  TIP3      H1              3.6770567107       -9.8910062085      -25.1383158017  TIP3      4815            0.0000000000
     36697      5007  TIP3      H2              3.0471599366       -9.0371361956      -24.0751495783  TIP3      4815            0.0000000000
     36698      5008  TIP3      OH2             7.9238401792       -7.8814954372      -39.9823855856  TIP3      4816            0.0000000000
     36699      5008  TIP3      H1              7.4225980145       -8.4080029842      -39.3356678343  TIP3      4816            0.0000000000
     36700      5008  TIP3      H2              8.2182994026       -8.5946004572      -40.5964349433  TIP3      4816            0.0000000000
     36701      5009  TIP3      OH2             7.1856693851      -10.0994362049      -27.6602748151  TIP3      4817            0.0000000000
     36702      5009  TIP3      H1              6.5806679814       -9.3891083716      -27.3930322044  TIP3      4817            0.0000000000
     36703      5009  TIP3      H2              7.5638341429       -9.7351656759      -28.4777284605  TIP3      4817            0.0000000000
     36704      5010  TIP3      OH2             8.9930756624       -9.6359311669      -41.7715055573  TIP3      4818            0.0000000000
     36705      5010  TIP3      H1              8.8667037528       -9.9004475061      -42.6906799472  TIP3      4818            0.0000000000
     36706      5010  TIP3      H2              9.9741964241       -9.6113089847      -41.6550562240  TIP3      4818            0.0000000000
     36707      5011  TIP3      OH2            12.2573440764       -7.5608443358      -24.3846453724  TIP3      4819            0.0000000000
     36708      5011  TIP3      H1             13.2193263887       -7.5109860435      -24.4186250391  TIP3      4819            0.0000000000
     36709      5011  TIP3      H2             12.0528468629       -8.2596910115      -23.7693482136  TIP3      4819            0.0000000000
     36710      5012  TIP3      OH2            18.1836058486       -7.2398552259       42.7514827704  TIP3      4820            0.0000000000
     36711      5012  TIP3      H1             18.0739064113       -7.7332824850       41.9219564085  TIP3      4820            0.0000000000
     36712      5012  TIP3      H2             18.3934462477       -6.3368079591       42.4818318535  TIP3      4820            0.0000000000
     36713      5013  TIP3      OH2             7.5695921418      -12.7221902705      -26.5820710760  TIP3      4821            0.0000000000
     36714      5013  TIP3      H1              7.6707034877      -13.4259499781      -27.2522744258  TIP3      4821            0.0000000000
     36715      5013  TIP3      H2              7.5144296209      -11.9090734025      -27.1264361228  TIP3      4821            0.0000000000
     36716      5014  TIP3      OH2             7.9757601345      -14.3369960375      -29.0460834420  TIP3      4822            0.0000000000
     36717      5014  TIP3      H1              8.4977566625      -13.8784672910      -29.7492757517  TIP3      4822            0.0000000000
     36718      5014  TIP3      H2              7.0905702174      -14.4193373976      -29.4645595196  TIP3      4822            0.0000000000
     36719      5015  TIP3      OH2             9.5216500599       -8.8728746901      -28.8264311336  TIP3      4823            0.0000000000
     36720      5015  TIP3      H1             10.2843781833       -9.0203730885      -29.3901190742  TIP3      4823            0.0000000000
     36721      5015  TIP3      H2              9.1574156416       -8.0300041438      -29.1409789084  TIP3      4823            0.0000000000
     36722      5016  TIP3      OH2            15.2496449014       -8.3177886415      -25.7203244973  TIP3      4824            0.0000000000
     36723      5016  TIP3      H1             15.0104879947       -7.5842463052      -26.3229259327  TIP3      4824            0.0000000000
     36724      5016  TIP3      H2             16.2078889816       -8.3299918948      -25.8984152284  TIP3      4824            0.0000000000
     36725      5017  TIP3      OH2             6.0049199307      -11.4332502102      -24.7204238810  TIP3      4825            0.0000000000
     36726      5017  TIP3      H1              5.2930672904      -12.0811195371      -24.8434909615  TIP3      4825            0.0000000000
     36727      5017  TIP3      H2              6.6932844593      -11.8419831269      -25.2777653914  TIP3      4825            0.0000000000
     36728      5018  TIP3      OH2             8.7580432819      -16.9100535376      -28.6529208359  TIP3      4826            0.0000000000
     36729      5018  TIP3      H1              8.5947295125      -15.9469526443      -28.7734264317  TIP3      4826            0.0000000000
     36730      5018  TIP3      H2              8.0175796417      -17.2738085968      -29.1640194589  TIP3      4826            0.0000000000
     36731      5019  TIP3      OH2            10.0367019237      -12.6046067632      -25.0296834760  TIP3      4827            0.0000000000
     36732      5019  TIP3      H1              9.7228411182      -12.8028190398      -24.1399807623  TIP3      4827            0.0000000000
     36733      5019  TIP3      H2              9.2335033368      -12.7726990976      -25.5759850908  TIP3      4827            0.0000000000
     36734      5020  TIP3      OH2            12.7663151605      -13.4449909120      -25.9639070878  TIP3      4828            0.0000000000
     36735      5020  TIP3      H1             11.7978244245      -13.3932610951      -25.8597758723  TIP3      4828            0.0000000000
     36736      5020  TIP3      H2             13.0098094682      -14.0879461994      -25.2919760642  TIP3      4828            0.0000000000
     36737      5021  TIP3      OH2             4.1164511677      -13.5567916841      -24.9598132169  TIP3      4829            0.0000000000
     36738      5021  TIP3      H1              4.4097112911      -14.2676951196      -25.5500641927  TIP3      4829            0.0000000000
     36739      5021  TIP3      H2              4.1236875779      -14.0008334071      -24.1037114102  TIP3      4829            0.0000000000
     36740      5022  TIP3      OH2             8.9964508228      -17.5218553912      -25.9632098312  TIP3      4830            0.0000000000
     36741      5022  TIP3      H1              9.6534255082      -18.2409967403      -25.9600979598  TIP3      4830            0.0000000000
     36742      5022  TIP3      H2              8.8467374536      -17.3690272785      -26.9114422072  TIP3      4830            0.0000000000
     36743      5023  TIP3      OH2             9.4390900534      -15.7968897515      -23.9535778456  TIP3      4831            0.0000000000
     36744      5023  TIP3      H1              9.1606184720      -16.4271947649      -24.6583881436  TIP3      4831            0.0000000000
     36745      5023  TIP3      H2              8.7030927974      -15.1915561452      -23.9318573559  TIP3      4831            0.0000000000
     36746      5024  TIP3      OH2             8.8194200445        1.0063048389      -40.7426456090  TIP3      4832            0.0000000000
     36747      5024  TIP3      H1              9.7889637648        1.1183295180      -40.6046861329  TIP3      4832            0.0000000000
     36748      5024  TIP3      H2              8.6419907959        1.6811268096      -41.3951249465  TIP3      4832            0.0000000000
     36749      5025  TIP3      OH2             2.3931846064       -4.3975172878      -41.2077259654  TIP3      4833            0.0000000000
     36750      5025  TIP3      H1              3.3529930181       -4.3049536159      -40.9948389459  TIP3      4833            0.0000000000
     36751      5025  TIP3      H2              2.4239642068       -4.9946415319      -41.9601405343  TIP3      4833            0.0000000000
     36752      5026  TIP3      OH2             1.1466091766        0.9801022359      -36.2374027114  TIP3      4834            0.0000000000
     36753      5026  TIP3      H1              0.4353945089        0.4930566399      -36.7084926406  TIP3      4834            0.0000000000
     36754      5026  TIP3      H2              1.4314866514        0.3213201853      -35.5787472021  TIP3      4834            0.0000000000
     36755      5027  TIP3      OH2             1.9723718781       -0.8908561648      -34.3675869974  TIP3      4835            0.0000000000
     36756      5027  TIP3      H1              1.6192286088       -1.7690588263      -34.1650584328  TIP3      4835            0.0000000000
     36757      5027  TIP3      H2              2.2094401525       -0.5626839843      -33.4835396330  TIP3      4835            0.0000000000
     36758      5028  TIP3      OH2            19.5213235492       -0.1028643017      -31.4349114638  TIP3      4836            0.0000000000
     36759      5028  TIP3      H1             19.5227373649        0.0715139839      -30.4767211389  TIP3      4836            0.0000000000
     36760      5028  TIP3      H2             20.2143258435        0.4921562762      -31.7326748960  TIP3      4836            0.0000000000
     36761      5029  TIP3      OH2            19.1316879508       -0.5038649296      -28.5188629081  TIP3      4837            0.0000000000
     36762      5029  TIP3      H1             18.5909339660       -1.2511053572      -28.8525136099  TIP3      4837            0.0000000000
     36763      5029  TIP3      H2             19.5804155575       -0.9362642954      -27.7775092151  TIP3      4837            0.0000000000
     36764      5030  TIP3      OH2            17.4943290524       -4.7429648473      -23.8639433209  TIP3      4838            0.0000000000
     36765      5030  TIP3      H1             16.6385454023       -4.8304396863      -23.4084492040  TIP3      4838            0.0000000000
     36766      5030  TIP3      H2             17.9247597657       -4.0063929808      -23.3782868637  TIP3      4838            0.0000000000
     36767      5031  TIP3      OH2            18.8547251758       -6.4550446974      -38.3882660229  TIP3      4839            0.0000000000
     36768      5031  TIP3      H1             19.7047993228       -6.0450501569      -38.1748894846  TIP3      4839            0.0000000000
     36769      5031  TIP3      H2             18.8274974259       -7.1682552715      -37.7114621136  TIP3      4839            0.0000000000
     36770      5032  TIP3      OH2            19.2029502431       -8.3719762269      -36.5057706458  TIP3      4840            0.0000000000
     36771      5032  TIP3      H1             18.4558025842       -8.8834699768      -36.1198937534  TIP3      4840            0.0000000000
     36772      5032  TIP3      H2             19.8008737008       -8.2382479379      -35.7416073319  TIP3      4840            0.0000000000
     36773      5033  TIP3      OH2            18.9605396963       -5.6803152986      -31.5215172804  TIP3      4841            0.0000000000
     36774      5033  TIP3      H1             19.7814202827       -6.0496446283      -31.8927623865  TIP3      4841            0.0000000000
     36775      5033  TIP3      H2             19.1048681704       -4.7236740096      -31.6807712808  TIP3      4841            0.0000000000
     36776      5034  TIP3      OH2            17.5025202545       -2.7716030842      -29.2384050201  TIP3      4842            0.0000000000
     36777      5034  TIP3      H1             16.8075323863       -2.4110224390      -28.6679608131  TIP3      4842            0.0000000000
     36778      5034  TIP3      H2             16.9661297965       -3.1624430437      -29.9608586350  TIP3      4842            0.0000000000
     36779      5035  TIP3      OH2            19.4972590400       -8.5508484438      -40.1273610550  TIP3      4843            0.0000000000
     36780      5035  TIP3      H1             18.9152948734       -8.1874645427      -40.8188668130  TIP3      4843            0.0000000000
     36781      5035  TIP3      H2             19.4286077507       -7.8477627799      -39.4510587989  TIP3      4843            0.0000000000
     36782      5036  TIP3      OH2            17.5144192648      -11.2865047082      -41.4979852980  TIP3      4844            0.0000000000
     36783      5036  TIP3      H1             17.9441426300      -10.6919686697      -42.1333732674  TIP3      4844            0.0000000000
     36784      5036  TIP3      H2             17.6808837233      -12.1297940414      -41.9627006894  TIP3      4844            0.0000000000
     36785      5037  TIP3      OH2            17.0256490186       -9.8983056218      -35.9332790454  TIP3      4845            0.0000000000
     36786      5037  TIP3      H1             16.8738212612      -10.8542238198      -35.9713626693  TIP3      4845            0.0000000000
     36787      5037  TIP3      H2             16.6882663343       -9.6762752166      -35.0477708220  TIP3      4845            0.0000000000
     36788      5038  TIP3      OH2             2.0260934003       -7.8178911752      -31.8773707918  TIP3      4846            0.0000000000
     36789      5038  TIP3      H1              2.2112771815       -7.8955710652      -32.8392182581  TIP3      4846            0.0000000000
     36790      5038  TIP3      H2              2.9193396456       -7.9850551056      -31.5185382829  TIP3      4846            0.0000000000
     36791      5039  TIP3      OH2            17.8726538530       -7.9395932930      -26.2744666862  TIP3      4847            0.0000000000
     36792      5039  TIP3      H1             18.4768342586       -8.6945191157      -26.1115016000  TIP3      4847            0.0000000000
     36793      5039  TIP3      H2             18.4720193934       -7.1650443803      -26.2312197677  TIP3      4847            0.0000000000
     36794      5040  TIP3      OH2            19.3892471629      -10.0472344428      -25.6662690401  TIP3      4848            0.0000000000
     36795      5040  TIP3      H1             18.4913973591      -10.4409460573      -25.7345995743  TIP3      4848            0.0000000000
     36796      5040  TIP3      H2             19.9596634146      -10.8188783707      -25.6446497646  TIP3      4848            0.0000000000
     36797      5041  TIP3      OH2            17.1263451133      -13.9088875524      -42.4837925985  TIP3      4849            0.0000000000
     36798      5041  TIP3      H1             17.7078766871      -14.3139453269      -41.8114811693  TIP3      4849            0.0000000000
     36799      5041  TIP3      H2             16.2395863931      -14.2482260516      -42.2754020543  TIP3      4849            0.0000000000
     36800      5042  TIP3      OH2            16.6928245812      -12.3145200394      -37.4575308135  TIP3      4850            0.0000000000
     36801      5042  TIP3      H1             16.9993071528      -13.2442856079      -37.3478462991  TIP3      4850            0.0000000000
     36802      5042  TIP3      H2             17.4717030517      -11.9106910151      -37.8628552571  TIP3      4850            0.0000000000
     36803      5043  TIP3      OH2            17.3359887322      -11.7934415922      -32.0225012868  TIP3      4851            0.0000000000
     36804      5043  TIP3      H1             18.2847783282      -11.5225682313      -32.0575182895  TIP3      4851            0.0000000000
     36805      5043  TIP3      H2             17.1300748597      -11.6106155996      -31.0963533291  TIP3      4851            0.0000000000
     36806      5044  TIP3      OH2            17.3820370964      -11.0303322839      -29.2391237230  TIP3      4852            0.0000000000
     36807      5044  TIP3      H1             16.5002679510      -10.7409475476      -28.9248719720  TIP3      4852            0.0000000000
     36808      5044  TIP3      H2             17.8151680100      -10.1723520746      -29.4767071766  TIP3      4852            0.0000000000
     36809      5045  TIP3      OH2            19.6222066296      -17.0006798502      -23.9266661797  TIP3      4853            0.0000000000
     36810      5045  TIP3      H1             20.0109949587      -17.6862828475      -24.4992909458  TIP3      4853            0.0000000000
     36811      5045  TIP3      H2             19.8009493851      -16.1771163340      -24.4018005673  TIP3      4853            0.0000000000
     36812      5046  TIP3      OH2            17.3629300114      -15.0368247856      -37.4281584376  TIP3      4854            0.0000000000
     36813      5046  TIP3      H1             17.5688456497      -15.4809167986      -36.5770421694  TIP3      4854            0.0000000000
     36814      5046  TIP3      H2             16.7462501360      -15.6544846364      -37.8728415295  TIP3      4854            0.0000000000
     36815      5047  TIP3      OH2             2.8497181978      -14.2705614940      -32.8752144982  TIP3      4855            0.0000000000
     36816      5047  TIP3      H1              3.3729399254      -15.0206008224      -32.5607321775  TIP3      4855            0.0000000000
     36817      5047  TIP3      H2              3.3552150117      -13.5228517986      -32.5011107137  TIP3      4855            0.0000000000
     36818      5048  TIP3      OH2             1.1300469828      -11.2240934380      -31.8301030033  TIP3      4856            0.0000000000
     36819      5048  TIP3      H1              1.6944958218      -11.4479718924      -32.5974530636  TIP3      4856            0.0000000000
     36820      5048  TIP3      H2              1.5842697425      -10.4165914399      -31.5469842891  TIP3      4856            0.0000000000
     36821      5049  TIP3      OH2            19.1945700644      -14.8549557314      -25.6184954207  TIP3      4857            0.0000000000
     36822      5049  TIP3      H1             18.2352099227      -14.6509204052      -25.5410411099  TIP3      4857            0.0000000000
     36823      5049  TIP3      H2             19.2022772644      -15.6077563943      -26.2115583629  TIP3      4857            0.0000000000
     36824      5050  TIP3      OH2            19.1816948521      -14.9704984553      -40.8694322554  TIP3      4858            0.0000000000
     36825      5050  TIP3      H1             19.5986718609      -15.6948504581      -41.3641092022  TIP3      4858            0.0000000000
     36826      5050  TIP3      H2             19.8981263347      -14.3205027776      -40.8427430522  TIP3      4858            0.0000000000
     36827      5051  TIP3      OH2             1.4955161264      -14.9646790172      -37.7527026867  TIP3      4859            0.0000000000
     36828      5051  TIP3      H1              0.5532089541      -14.7728473391      -37.8942033269  TIP3      4859            0.0000000000
     36829      5051  TIP3      H2              1.9089248862      -14.4739731710      -38.4904891172  TIP3      4859            0.0000000000
     36830      5052  TIP3      OH2            16.2290184984       -0.0126711121      -35.8055557887  TIP3      4860            0.0000000000
     36831      5052  TIP3      H1             16.9130478361       -0.3188995391      -36.4281518120  TIP3      4860            0.0000000000
     36832      5052  TIP3      H2             16.7499814425        0.4860883985      -35.1590720041  TIP3      4860            0.0000000000
     36833      5053  TIP3      OH2             1.4389073607      -16.3062237229      -29.4871670679  TIP3      4861            0.0000000000
     36834      5053  TIP3      H1              0.7825420727      -16.4787320240      -28.7810576077  TIP3      4861            0.0000000000
     36835      5053  TIP3      H2              0.9745206313      -15.6063675827      -29.9947320802  TIP3      4861            0.0000000000
     36836      5054  TIP3      OH2             3.6808966065       -3.0581802063      -25.2737978959  TIP3      4862            0.0000000000
     36837      5054  TIP3      H1              2.8340030787       -2.8972956360      -25.7226930620  TIP3      4862            0.0000000000
     36838      5054  TIP3      H2              3.3870355124       -3.1746594088      -24.3639563134  TIP3      4862            0.0000000000
     36839      5055  TIP3      OH2             6.5920919481       -2.1012718005      -29.0202593962  TIP3      4863            0.0000000000
     36840      5055  TIP3      H1              6.2387135588       -1.2451188103      -29.3011642808  TIP3      4863            0.0000000000
     36841      5055  TIP3      H2              7.5226900157       -2.0063455768      -29.3135217099  TIP3      4863            0.0000000000
     36842      5056  TIP3      OH2            18.2345553870      -16.7372316324      -27.7622973528  TIP3      4864            0.0000000000
     36843      5056  TIP3      H1             17.3386180312      -16.5571512562      -28.1175530542  TIP3      4864            0.0000000000
     36844      5056  TIP3      H2             18.3780457147      -17.6161106683      -28.1952405607  TIP3      4864            0.0000000000
     36845      5057  TIP3      OH2             4.0077176312        1.1344025458      -29.0223120514  TIP3      4865            0.0000000000
     36846      5057  TIP3      H1              3.2765966144        1.6323078701      -29.4213807930  TIP3      4865            0.0000000000
     36847      5057  TIP3      H2              3.6878792521        0.9372429010      -28.1302966960  TIP3      4865            0.0000000000
     36848      5058  TIP3      OH2             6.4756971534        0.7067279401      -29.9551347105  TIP3      4866            0.0000000000
     36849      5058  TIP3      H1              5.5890205601        0.8479020696      -29.5494634963  TIP3      4866            0.0000000000
     36850      5058  TIP3      H2              6.4217216520        1.3019859685      -30.7248234062  TIP3      4866            0.0000000000
     36851      5059  TIP3      OH2            11.1502543105        0.6188627283      -30.7968090207  TIP3      4867            0.0000000000
     36852      5059  TIP3      H1             10.7241301670        1.1981537981      -31.4453619179  TIP3      4867            0.0000000000
     36853      5059  TIP3      H2             11.3451045752        1.2358433188      -30.0588665699  TIP3      4867            0.0000000000
     36854      5060  TIP3      OH2            16.1016285022        1.0184032129      -29.5261985773  TIP3      4868            0.0000000000
     36855      5060  TIP3      H1             15.9614503124        1.9660200889      -29.7527854901  TIP3      4868            0.0000000000
     36856      5060  TIP3      H2             16.2489798183        0.6363829437      -30.4009110809  TIP3      4868            0.0000000000
     36857      5061  TIP3      OH2             3.4587412568       -0.2162837451      -32.0845721529  TIP3      4869            0.0000000000
     36858      5061  TIP3      H1              3.3815994631       -0.6726754725      -31.2183640168  TIP3      4869            0.0000000000
     36859      5061  TIP3      H2              4.2756032815       -0.5892259754      -32.4737163992  TIP3      4869            0.0000000000
     36860      5062  TIP3      OH2             5.5391781731       -1.5042410637      -33.4315063327  TIP3      4870            0.0000000000
     36861      5062  TIP3      H1              5.3726899705       -2.4384046887      -33.2040348395  TIP3      4870            0.0000000000
     36862      5062  TIP3      H2              6.3953115800       -1.3542259484      -32.9745156853  TIP3      4870            0.0000000000
     36863      5063  TIP3      OH2             8.1173106254       -1.0212247131      -32.5580340524  TIP3      4871            0.0000000000
     36864      5063  TIP3      H1              8.3060920336       -1.9392322223      -32.8226045116  TIP3      4871            0.0000000000
     36865      5063  TIP3      H2              8.1809273253       -1.0760081166      -31.5921049464  TIP3      4871            0.0000000000
     36866      5064  TIP3      OH2            11.5986268665      -15.3685905260      -33.4177277173  TIP3      4872            0.0000000000
     36867      5064  TIP3      H1             10.9239689657      -16.0114260135      -33.1407847610  TIP3      4872            0.0000000000
     36868      5064  TIP3      H2             12.1523987607      -15.9001769466      -34.0019413172  TIP3      4872            0.0000000000
     36869      5065  TIP3      OH2            16.7299493753      -17.2943781425      -33.3122460371  TIP3      4873            0.0000000000
     36870      5065  TIP3      H1             17.3497877966      -16.7452631535      -33.8597896528  TIP3      4873            0.0000000000
     36871      5065  TIP3      H2             15.8509758596      -16.9526479021      -33.5759546901  TIP3      4873            0.0000000000
     36872      5066  TIP3      OH2            18.4070039165      -16.0644295799      -35.0568805822  TIP3      4874            0.0000000000
     36873      5066  TIP3      H1             19.0777781520      -16.6584972791      -35.4848044141  TIP3      4874            0.0000000000
     36874      5066  TIP3      H2             18.9161396971      -15.2284263677      -34.9692245699  TIP3      4874            0.0000000000
     36875      5067  TIP3      OH2             3.8802887539      -16.8053086405      -35.4579508794  TIP3      4875            0.0000000000
     36876      5067  TIP3      H1              3.2061325201      -16.9277537173      -36.1564274342  TIP3      4875            0.0000000000
     36877      5067  TIP3      H2              4.4536994007      -17.5825820907      -35.6558454554  TIP3      4875            0.0000000000
     36878      5068  TIP3      OH2             2.7192820182      -16.9881841801      -39.8444982284  TIP3      4876            0.0000000000
     36879      5068  TIP3      H1              3.2214787883      -16.3483330109      -40.3917501467  TIP3      4876            0.0000000000
     36880      5068  TIP3      H2              2.1626188289      -16.4033589069      -39.3097809027  TIP3      4876            0.0000000000
     36881      5069  TIP3      OH2             8.4471095245      -16.8196281190      -35.7819529691  TIP3      4877            0.0000000000
     36882      5069  TIP3      H1              9.3466213691      -16.4560220504      -35.8497168194  TIP3      4877            0.0000000000
     36883      5069  TIP3      H2              8.4029890470      -17.0359469276      -34.8502609552  TIP3      4877            0.0000000000
     36884      5070  TIP3      OH2            14.1440029282      -16.7981085595      -34.1536707957  TIP3      4878            0.0000000000
     36885      5070  TIP3      H1             14.1105519055      -16.6853395090      -35.1114847481  TIP3      4878            0.0000000000
     36886      5070  TIP3      H2             13.7818085161      -17.7103417192      -34.0353760953  TIP3      4878            0.0000000000
     36887      5071  TIP3      OH2            15.4263217598      -16.7698358534      -38.4969610231  TIP3      4879            0.0000000000
     36888      5071  TIP3      H1             14.6774440580      -16.1740993118      -38.6530944051  TIP3      4879            0.0000000000
     36889      5071  TIP3      H2             14.9954574543      -17.6316341057      -38.2771520630  TIP3      4879            0.0000000000
     36890      5072  TIP3      OH2             2.6614872927       -1.0300173419      -38.8390405677  TIP3      4880            0.0000000000
     36891      5072  TIP3      H1              1.9816948051       -1.0328566200      -39.5398090916  TIP3      4880            0.0000000000
     36892      5072  TIP3      H2              2.6812135400       -0.0786422571      -38.6711293306  TIP3      4880            0.0000000000
     36893      5073  TIP3      OH2             4.5649794752      -15.1233794773      -41.3068705568  TIP3      4881            0.0000000000
     36894      5073  TIP3      H1              5.1124428591      -15.6754721961      -41.8639070620  TIP3      4881            0.0000000000
     36895      5073  TIP3      H2              5.2262539193      -14.7086313883      -40.7244858141  TIP3      4881            0.0000000000
     36896      5074  TIP3      OH2             9.5973372197      -14.7953133481      -38.9283452348  TIP3      4882            0.0000000000
     36897      5074  TIP3      H1              9.8554378037      -15.3759687261      -38.1943595033  TIP3      4882            0.0000000000
     36898      5074  TIP3      H2              9.6568699916      -13.9325267579      -38.4570594645  TIP3      4882            0.0000000000
     36899      5075  TIP3      OH2            11.4845648002        0.5269118572      -40.4537264154  TIP3      4883            0.0000000000
     36900      5075  TIP3      H1             12.4464935166        0.5435496457      -40.6253301620  TIP3      4883            0.0000000000
     36901      5075  TIP3      H2             11.3161014979       -0.1786109212      -41.1286920683  TIP3      4883            0.0000000000
     36902      5076  TIP3      OH2            18.2327148757       -0.2205111550      -37.7794170832  TIP3      4884            0.0000000000
     36903      5076  TIP3      H1             18.0254311012       -1.0024268719      -38.3492435468  TIP3      4884            0.0000000000
     36904      5076  TIP3      H2             18.1559093204        0.5109992217      -38.4222604210  TIP3      4884            0.0000000000
     36905      5077  TIP3      OH2             3.8753713078      -16.2061183911      -26.0391928209  TIP3      4885            0.0000000000
     36906      5077  TIP3      H1              3.5239338421      -16.9991270489      -25.6376517956  TIP3      4885            0.0000000000
     36907      5077  TIP3      H2              4.8075537923      -16.2204203005      -25.7650055906  TIP3      4885            0.0000000000
     36908      5078  TIP3      OH2             4.4865216815       -0.0593099449      -41.8745331447  TIP3      4886            0.0000000000
     36909      5078  TIP3      H1              4.1867032915        0.2098439367      -40.9973606869  TIP3      4886            0.0000000000
     36910      5078  TIP3      H2              5.2432985154       -0.6201261608      -41.7074475336  TIP3      4886            0.0000000000
     36911      5079  TIP3      OH2            31.9336443903       -7.6236630030      -35.7308794780  TIP3      4887            0.0000000000
     36912      5079  TIP3      H1             31.9243360459       -6.6368498502      -35.7266964711  TIP3      4887            0.0000000000
     36913      5079  TIP3      H2             31.1696353660       -7.8174729462      -36.2954210528  TIP3      4887            0.0000000000
     36914      5080  TIP3      OH2            30.7714791662       -8.3482600992      -32.2213660105  TIP3      4888            0.0000000000
     36915      5080  TIP3      H1             30.7509586174       -8.9941437260      -31.4993415659  TIP3      4888            0.0000000000
     36916      5080  TIP3      H2             30.4431744145       -8.8573734903      -32.9781706817  TIP3      4888            0.0000000000
     36917      5081  TIP3      OH2            23.1247409391       -8.6768879481      -30.6567544301  TIP3      4889            0.0000000000
     36918      5081  TIP3      H1             23.2092958254       -9.3566895132      -29.9559463252  TIP3      4889            0.0000000000
     36919      5081  TIP3      H2             23.8707942918       -8.1011276785      -30.4367300903  TIP3      4889            0.0000000000
     36920      5082  TIP3      OH2            34.4682735030       -5.4076167214      -33.9207623348  TIP3      4890            0.0000000000
     36921      5082  TIP3      H1             34.0562682893       -6.1230226828      -33.4268906465  TIP3      4890            0.0000000000
     36922      5082  TIP3      H2             34.4858372782       -4.7045972369      -33.2568152421  TIP3      4890            0.0000000000
     36923      5083  TIP3      OH2            24.0514938371       -4.2238704004      -32.1596771901  TIP3      4891            0.0000000000
     36924      5083  TIP3      H1             23.7346215610       -5.0925967979      -32.4743990400  TIP3      4891            0.0000000000
     36925      5083  TIP3      H2             25.0048595007       -4.4150252496      -32.1015444147  TIP3      4891            0.0000000000
     36926      5084  TIP3      OH2            20.6901639032      -10.6648313643      -36.6716510245  TIP3      4892            0.0000000000
     36927      5084  TIP3      H1             20.2516185623       -9.7941365247      -36.7256393214  TIP3      4892            0.0000000000
     36928      5084  TIP3      H2             20.1236417346      -11.2018873987      -37.2426929910  TIP3      4892            0.0000000000
     36929      5085  TIP3      OH2            21.3975674164       -8.4432582609      -34.5264454447  TIP3      4893            0.0000000000
     36930      5085  TIP3      H1             21.6669665067       -9.2611478620      -34.0675333457  TIP3      4893            0.0000000000
     36931      5085  TIP3      H2             22.1004354441       -8.3408930029      -35.1860915819  TIP3      4893            0.0000000000
     36932      5086  TIP3      OH2            31.6669884278       -0.2181480501      -33.6384519772  TIP3      4894            0.0000000000
     36933      5086  TIP3      H1             32.1818687352       -0.9786823548      -34.0157774040  TIP3      4894            0.0000000000
     36934      5086  TIP3      H2             31.2800053025       -0.6067969984      -32.8462303694  TIP3      4894            0.0000000000
     36935      5087  TIP3      OH2            29.1495956154       -5.9451128084      -31.7466359727  TIP3      4895            0.0000000000
     36936      5087  TIP3      H1             29.4841631238       -6.5783232461      -32.3979380785  TIP3      4895            0.0000000000
     36937      5087  TIP3      H2             29.9511873196       -5.7953349856      -31.2188302764  TIP3      4895            0.0000000000
     36938      5088  TIP3      OH2            32.3224485570      -11.4760889819      -31.4271649313  TIP3      4896            0.0000000000
     36939      5088  TIP3      H1             32.4818262171      -12.4360232347      -31.4549358082  TIP3      4896            0.0000000000
     36940      5088  TIP3      H2             32.2165170111      -11.3228487076      -32.3818588213  TIP3      4896            0.0000000000
     36941      5089  TIP3      OH2            25.4301491336      -13.3934895164      -34.2099466345  TIP3      4897            0.0000000000
     36942      5089  TIP3      H1             25.5297542438      -12.5541495217      -34.6955322829  TIP3      4897            0.0000000000
     36943      5089  TIP3      H2             25.0238375454      -13.9641935649      -34.8961009214  TIP3      4897            0.0000000000
     36944      5090  TIP3      OH2            33.1905518162      -13.2266674957      -35.8551219230  TIP3      4898            0.0000000000
     36945      5090  TIP3      H1             33.7742181614      -13.6442007005      -35.1559756496  TIP3      4898            0.0000000000
     36946      5090  TIP3      H2             33.8857007894      -12.8015295775      -36.3358567929  TIP3      4898            0.0000000000
     36947      5091  TIP3      OH2            22.0515145118      -10.9829313379      -33.4731323189  TIP3      4899            0.0000000000
     36948      5091  TIP3      H1             22.7222400176      -11.5303957908      -33.0216098945  TIP3      4899            0.0000000000
     36949      5091  TIP3      H2             22.1522760735      -11.2949216080      -34.3856060936  TIP3      4899            0.0000000000
     36950      5092  TIP3      OH2            27.2222033541       -9.4270635028      -34.1768157396  TIP3      4900            0.0000000000
     36951      5092  TIP3      H1             27.8794716715      -10.0086109438      -33.7589378779  TIP3      4900            0.0000000000
     36952      5092  TIP3      H2             26.6846225326      -10.0886148391      -34.6555195293  TIP3      4900            0.0000000000
     36953      5093  TIP3      OH2            24.3157983783      -14.5037380065      -30.1691510314  TIP3      4901            0.0000000000
     36954      5093  TIP3      H1             24.0655614761      -13.9224391774      -30.9193672851  TIP3      4901            0.0000000000
     36955      5093  TIP3      H2             23.6554877342      -14.2505643408      -29.4862391343  TIP3      4901            0.0000000000
     36956      5094  TIP3      OH2            31.6181176160       -5.0209306163      -36.6179251141  TIP3      4902            0.0000000000
     36957      5094  TIP3      H1             31.3619296253       -5.2964995057      -37.5078302657  TIP3      4902            0.0000000000
     36958      5094  TIP3      H2             31.3203702516       -4.0846270636      -36.5625176896  TIP3      4902            0.0000000000
     36959      5095  TIP3      OH2            26.8452015830       -6.8524867085      -29.9203781356  TIP3      4903            0.0000000000
     36960      5095  TIP3      H1             26.1374673352       -6.2064204906      -29.7167718591  TIP3      4903            0.0000000000
     36961      5095  TIP3      H2             27.5488290739       -6.2507688860      -30.2033337260  TIP3      4903            0.0000000000
     36962      5096  TIP3      OH2            34.6694407384      -13.9709201919      -33.7567332703  TIP3      4904            0.0000000000
     36963      5096  TIP3      H1             34.7000898980      -14.7959905335      -33.2574170296  TIP3      4904            0.0000000000
     36964      5096  TIP3      H2             35.4479796889      -13.5313268555      -33.3402669081  TIP3      4904            0.0000000000
     36965      5097  TIP3      OH2            23.8982629436      -12.6361173172      -32.1430357245  TIP3      4905            0.0000000000
     36966      5097  TIP3      H1             24.5252852239      -11.9502306443      -31.8201142629  TIP3      4905            0.0000000000
     36967      5097  TIP3      H2             24.4229716001      -13.0492060789      -32.8735240566  TIP3      4905            0.0000000000
     36968      5098  TIP3      OH2            25.2833488151       -4.8519815798      -29.1339314186  TIP3      4906            0.0000000000
     36969      5098  TIP3      H1             25.2475335360       -3.9291670350      -29.4457101740  TIP3      4906            0.0000000000
     36970      5098  TIP3      H2             24.4191954130       -4.9192233809      -28.6520633839  TIP3      4906            0.0000000000
     36971      5099  TIP3      OH2            21.3624392431       -5.2308725466      -38.3187601376  TIP3      4907            0.0000000000
     36972      5099  TIP3      H1             21.1320962781       -4.9056740359      -39.2094695787  TIP3      4907            0.0000000000
     36973      5099  TIP3      H2             21.4297461536       -4.3973407729      -37.8050048535  TIP3      4907            0.0000000000
     36974      5100  TIP3      OH2            34.7920374240       -3.6289514620      -31.4735829481  TIP3      4908            0.0000000000
     36975      5100  TIP3      H1             33.8337362778       -3.4451521070      -31.4180797936  TIP3      4908            0.0000000000
     36976      5100  TIP3      H2             35.2078743438       -2.7973238424      -31.7591933288  TIP3      4908            0.0000000000
     36977      5101  TIP3      OH2            35.1056101292      -15.1610635517      -30.4100494975  TIP3      4909            0.0000000000
     36978      5101  TIP3      H1             34.4223593973      -14.4754198905      -30.2879743787  TIP3      4909            0.0000000000
     36979      5101  TIP3      H2             35.8770683147      -14.6811083574      -30.7291890770  TIP3      4909            0.0000000000
     36980      5102  TIP3      OH2            28.2821764784      -17.1583749044      -32.7082590269  TIP3      4910            0.0000000000
     36981      5102  TIP3      H1             28.1469862271      -18.1252755490      -32.7721121012  TIP3      4910            0.0000000000
     36982      5102  TIP3      H2             27.4026942304      -16.8546719086      -32.4007038067  TIP3      4910            0.0000000000
     36983      5103  TIP3      OH2            33.1883194051       -1.8373790483      -34.9089129453  TIP3      4911            0.0000000000
     36984      5103  TIP3      H1             33.6413691324       -2.5224241673      -35.4532083696  TIP3      4911            0.0000000000
     36985      5103  TIP3      H2             33.5986736254       -1.0459672355      -35.3271548234  TIP3      4911            0.0000000000
     36986      5104  TIP3      OH2            34.4276126672       -3.8484505208      -36.4341749132  TIP3      4912            0.0000000000
     36987      5104  TIP3      H1             34.1866652590       -4.5562418956      -37.0555435921  TIP3      4912            0.0000000000
     36988      5104  TIP3      H2             34.5102604000       -4.3717906534      -35.6105820105  TIP3      4912            0.0000000000
     36989      5105  TIP3      OH2            35.8100341141       -5.1275348408      -27.8534912580  TIP3      4913            0.0000000000
     36990      5105  TIP3      H1             36.0991158526       -5.8164261531      -28.4791726969  TIP3      4913            0.0000000000
     36991      5105  TIP3      H2             36.2329723720       -4.3711442512      -28.2925514346  TIP3      4913            0.0000000000
     36992      5106  TIP3      OH2            30.5643733339       -8.3852327559      -38.2323885817  TIP3      4914            0.0000000000
     36993      5106  TIP3      H1             29.8668555436       -7.7927905466      -38.5842564319  TIP3      4914            0.0000000000
     36994      5106  TIP3      H2             31.2659417910       -8.2327068637      -38.8856093240  TIP3      4914            0.0000000000
     36995      5107  TIP3      OH2            30.6123358789       -9.8792452038      -41.0975060446  TIP3      4915            0.0000000000
     36996      5107  TIP3      H1             31.3738719001       -9.8118233030      -40.5201916925  TIP3      4915            0.0000000000
     36997      5107  TIP3      H2             30.9426030233      -10.4696169968      -41.7859867023  TIP3      4915            0.0000000000
     36998      5108  TIP3      OH2            33.9382644352       -8.2423154469      -37.3223847425  TIP3      4916            0.0000000000
     36999      5108  TIP3      H1             33.2844270355       -7.8768136317      -36.6747788692  TIP3      4916            0.0000000000
     37000      5108  TIP3      H2             34.4928135493       -8.7686812421      -36.7029049716  TIP3      4916            0.0000000000
     37001      5109  TIP3      OH2            33.9572898119       -9.9797697169      -28.1746858884  TIP3      4917            0.0000000000
     37002      5109  TIP3      H1             33.9131674305       -9.1848740278      -27.6190031840  TIP3      4917            0.0000000000
     37003      5109  TIP3      H2             33.3172642889       -9.7056407043      -28.8593185916  TIP3      4917            0.0000000000
     37004      5110  TIP3      OH2            25.6393288640       -7.4993030585      -35.3605920193  TIP3      4918            0.0000000000
     37005      5110  TIP3      H1             25.3082663838       -7.8896812361      -36.2045811299  TIP3      4918            0.0000000000
     37006      5110  TIP3      H2             26.2454128202       -8.1939301787      -35.0223593875  TIP3      4918            0.0000000000
     37007      5111  TIP3      OH2            26.9559443306       -4.1035139832      -32.6787361292  TIP3      4919            0.0000000000
     37008      5111  TIP3      H1             26.9368525459       -4.6431409352      -33.4778538976  TIP3      4919            0.0000000000
     37009      5111  TIP3      H2             27.7321860046       -4.4684748066      -32.2150439302  TIP3      4919            0.0000000000
     37010      5112  TIP3      OH2            25.9609534915       -8.7527520599      -31.6999633289  TIP3      4920            0.0000000000
     37011      5112  TIP3      H1             26.5165153615       -8.6458352340      -32.4962774865  TIP3      4920            0.0000000000
     37012      5112  TIP3      H2             26.3417493143       -8.0888038857      -31.0838655098  TIP3      4920            0.0000000000
     37013      5113  TIP3      OH2            32.3204700242       -3.1464666944      -30.9991926415  TIP3      4921            0.0000000000
     37014      5113  TIP3      H1             32.0692529670       -2.5645711102      -30.2838155451  TIP3      4921            0.0000000000
     37015      5113  TIP3      H2             32.1294489857       -4.0308111741      -30.5855293123  TIP3      4921            0.0000000000
     37016      5114  TIP3      OH2            26.9062893698       -4.3171594819      -26.9851057887  TIP3      4922            0.0000000000
     37017      5114  TIP3      H1             26.4968242886       -3.5668715672      -26.5174925738  TIP3      4922            0.0000000000
     37018      5114  TIP3      H2             26.2390459297       -4.5230942289      -27.6827876697  TIP3      4922            0.0000000000
     37019      5115  TIP3      OH2            32.9390620272       -9.0942668307      -39.5729959813  TIP3      4923            0.0000000000
     37020      5115  TIP3      H1             33.4425484394       -8.7100442732      -38.8047732046  TIP3      4923            0.0000000000
     37021      5115  TIP3      H2             33.2349845885       -8.4739899545      -40.2843603326  TIP3      4923            0.0000000000
     37022      5116  TIP3      OH2            23.8414734930       -8.1555606133      -27.8207479880  TIP3      4924            0.0000000000
     37023      5116  TIP3      H1             23.8837945107       -7.5130221929      -27.0824299526  TIP3      4924            0.0000000000
     37024      5116  TIP3      H2             22.9106039647       -8.0582571038      -28.0745887822  TIP3      4924            0.0000000000
     37025      5117  TIP3      OH2            30.5969876384       -2.2280701831      -36.1483923057  TIP3      4925            0.0000000000
     37026      5117  TIP3      H1             31.0232112778       -1.9468655648      -35.3358191681  TIP3      4925            0.0000000000
     37027      5117  TIP3      H2             30.0410148721       -1.4764281352      -36.3725291626  TIP3      4925            0.0000000000
     37028      5118  TIP3      OH2            25.1476305584       -2.2906438766      -26.2296180648  TIP3      4926            0.0000000000
     37029      5118  TIP3      H1             25.1110025468       -2.3895145104      -27.1987360261  TIP3      4926            0.0000000000
     37030      5118  TIP3      H2             24.2086388315       -2.4124957708      -25.9824813475  TIP3      4926            0.0000000000
     37031      5119  TIP3      OH2            24.5938495142       -8.4686458575      -37.7409541490  TIP3      4927            0.0000000000
     37032      5119  TIP3      H1             24.3184503501       -7.6946036354      -38.2705867773  TIP3      4927            0.0000000000
     37033      5119  TIP3      H2             23.9427364803       -9.1345612249      -37.9733632282  TIP3      4927            0.0000000000
     37034      5120  TIP3      OH2            20.6913432151       -6.0480341950      -28.8524314943  TIP3      4928            0.0000000000
     37035      5120  TIP3      H1             20.2410504966       -6.1261764211      -29.7131068630  TIP3      4928            0.0000000000
     37036      5120  TIP3      H2             20.7590572655       -6.9985791863      -28.6345292340  TIP3      4928            0.0000000000
     37037      5121  TIP3      OH2            20.4533021505       -3.3129128827      -32.0684801838  TIP3      4929            0.0000000000
     37038      5121  TIP3      H1             21.4104047628       -3.4283472285      -32.0876149226  TIP3      4929            0.0000000000
     37039      5121  TIP3      H2             20.3663948825       -2.4961264975      -31.5590547416  TIP3      4929            0.0000000000
     37040      5122  TIP3      OH2            29.6480263977       -3.0598250091      -27.5290515454  TIP3      4930            0.0000000000
     37041      5122  TIP3      H1             29.7130099498       -2.2296079848      -27.0080067680  TIP3      4930            0.0000000000
     37042      5122  TIP3      H2             28.7882171637       -3.4311671424      -27.2602346247  TIP3      4930            0.0000000000
     37043      5123  TIP3      OH2            30.0817021585        0.6758101876      -37.7264828156  TIP3      4931            0.0000000000
     37044      5123  TIP3      H1             30.0305771967        0.6397479204      -38.6949475873  TIP3      4931            0.0000000000
     37045      5123  TIP3      H2             30.1261042487        1.6414103120      -37.5531740129  TIP3      4931            0.0000000000
     37046      5124  TIP3      OH2            23.7284047203       -0.4499459960      -35.9058075480  TIP3      4932            0.0000000000
     37047      5124  TIP3      H1             23.8652319832       -0.8503127270      -35.0160650745  TIP3      4932            0.0000000000
     37048      5124  TIP3      H2             22.8757511680       -0.8512208400      -36.1412068862  TIP3      4932            0.0000000000
     37049      5125  TIP3      OH2            33.0809439980       -0.1491512911      -40.7697974161  TIP3      4933            0.0000000000
     37050      5125  TIP3      H1             33.6087207209       -0.8723394128      -41.1775270767  TIP3      4933            0.0000000000
     37051      5125  TIP3      H2             33.1749738631       -0.3532910418      -39.8184984024  TIP3      4933            0.0000000000
     37052      5126  TIP3      OH2            32.7994540389       -0.1970166411      -37.9740714892  TIP3      4934            0.0000000000
     37053      5126  TIP3      H1             31.8539290329       -0.0987016663      -37.7477387654  TIP3      4934            0.0000000000
     37054      5126  TIP3      H2             33.0569300207       -0.9379520763      -37.4078006102  TIP3      4934            0.0000000000
     37055      5127  TIP3      OH2            35.3757102040      -10.9578841206      -25.8768089672  TIP3      4935            0.0000000000
     37056      5127  TIP3      H1             35.3044888926      -10.6134410648      -26.7670427885  TIP3      4935            0.0000000000
     37057      5127  TIP3      H2             35.8728887398      -11.8057882382      -26.0533437452  TIP3      4935            0.0000000000
     37058      5128  TIP3      OH2            22.9610184036       -4.7381825728      -27.9213974304  TIP3      4936            0.0000000000
     37059      5128  TIP3      H1             23.1956792900       -5.1107910819      -27.0396170754  TIP3      4936            0.0000000000
     37060      5128  TIP3      H2             22.0907762424       -5.1336629963      -28.1207530607  TIP3      4936            0.0000000000
     37061      5129  TIP3      OH2            25.6484628726      -16.2554177808      -31.9586393863  TIP3      4937            0.0000000000
     37062      5129  TIP3      H1             24.7432889687      -16.3791782805      -32.3217931698  TIP3      4937            0.0000000000
     37063      5129  TIP3      H2             25.5231785792      -15.4250853653      -31.4719133769  TIP3      4937            0.0000000000
     37064      5130  TIP3      OH2            30.2961096481      -16.5813872965      -28.5728155815  TIP3      4938            0.0000000000
     37065      5130  TIP3      H1             30.6845757888      -17.0056325459      -27.7914201430  TIP3      4938            0.0000000000
     37066      5130  TIP3      H2             29.3184894335      -16.7068902592      -28.4602756741  TIP3      4938            0.0000000000
     37067      5131  TIP3      OH2            33.5259067917      -12.7884429733      -27.7447231688  TIP3      4939            0.0000000000
     37068      5131  TIP3      H1             33.0309110847      -12.9412294312      -26.9089171340  TIP3      4939            0.0000000000
     37069      5131  TIP3      H2             33.4340529062      -11.8363464443      -27.8932266175  TIP3      4939            0.0000000000
     37070      5132  TIP3      OH2            34.4761153213       -7.9931816118      -41.7820015635  TIP3      4940            0.0000000000
     37071      5132  TIP3      H1             34.4215460000       -8.0683258235      -42.7501335212  TIP3      4940            0.0000000000
     37072      5132  TIP3      H2             35.2267136985       -7.3992201740      -41.7091495786  TIP3      4940            0.0000000000
     37073      5133  TIP3      OH2            29.9124552583      -14.0014352452      -41.2417917662  TIP3      4941            0.0000000000
     37074      5133  TIP3      H1             29.6223309526      -14.0717122271      -40.3159570211  TIP3      4941            0.0000000000
     37075      5133  TIP3      H2             29.6925318808      -14.8899891668      -41.5338722223  TIP3      4941            0.0000000000
     37076      5134  TIP3      OH2            25.7513951992      -11.2854993296      -30.7058679441  TIP3      4942            0.0000000000
     37077      5134  TIP3      H1             25.0092265166      -11.3027016986      -30.0691036191  TIP3      4942            0.0000000000
     37078      5134  TIP3      H2             25.7079095489      -10.3748565040      -31.0711969723  TIP3      4942            0.0000000000
     37079      5135  TIP3      OH2            25.7117575648      -11.1604974183      -35.8431913424  TIP3      4943            0.0000000000
     37080      5135  TIP3      H1             24.7758099504      -11.4183594593      -35.9729065889  TIP3      4943            0.0000000000
     37081      5135  TIP3      H2             26.0922795933      -11.4596243858      -36.6903867807  TIP3      4943            0.0000000000
     37082      5136  TIP3      OH2            31.1391257717      -10.5999673114      -36.9880734084  TIP3      4944            0.0000000000
     37083      5136  TIP3      H1             30.6766902155       -9.7773533092      -37.2915505017  TIP3      4944            0.0000000000
     37084      5136  TIP3      H2             31.6635456531      -10.6141858485      -37.7560332036  TIP3      4944            0.0000000000
     37085      5137  TIP3      OH2            30.3281869281      -10.4703959746      -25.6853775202  TIP3      4945            0.0000000000
     37086      5137  TIP3      H1             29.7778789330      -11.1973239861      -25.3052855663  TIP3      4945            0.0000000000
     37087      5137  TIP3      H2             31.1205526859      -10.5547839141      -25.1214793986  TIP3      4945            0.0000000000
     37088      5138  TIP3      OH2            32.2566619769      -11.1632947170      -34.2142621097  TIP3      4946            0.0000000000
     37089      5138  TIP3      H1             31.9830044229      -10.5973279691      -34.9502510782  TIP3      4946            0.0000000000
     37090      5138  TIP3      H2             32.3590547510      -12.0354817488      -34.6410421867  TIP3      4946            0.0000000000
     37091      5139  TIP3      OH2            23.3712071142      -11.0239806942      -29.0092931586  TIP3      4947            0.0000000000
     37092      5139  TIP3      H1             23.4630851901      -10.6134520100      -28.1292243346  TIP3      4947            0.0000000000
     37093      5139  TIP3      H2             22.9448818667      -11.8651377831      -28.8072207762  TIP3      4947            0.0000000000
     37094      5140  TIP3      OH2            26.9402268116      -13.4301376263      -41.8614361528  TIP3      4948            0.0000000000
     37095      5140  TIP3      H1             26.4343155993      -14.0555048561      -41.3002062285  TIP3      4948            0.0000000000
     37096      5140  TIP3      H2             26.3786573551      -13.0254187330      -42.5133041195  TIP3      4948            0.0000000000
     37097      5141  TIP3      OH2            20.0354279761      -13.9119162642      -35.0389509616  TIP3      4949            0.0000000000
     37098      5141  TIP3      H1             20.7136231031      -13.9542067333      -34.3363080119  TIP3      4949            0.0000000000
     37099      5141  TIP3      H2             20.4821491155      -14.3007180478      -35.8130584961  TIP3      4949            0.0000000000
     37100      5142  TIP3      OH2            21.3468161506      -13.1823004155      -39.6802334963  TIP3      4950            0.0000000000
     37101      5142  TIP3      H1             21.7940755908      -12.5521626486      -40.2679690291  TIP3      4950            0.0000000000
     37102      5142  TIP3      H2             20.6329020584      -12.5938885196      -39.3387888341  TIP3      4950            0.0000000000
     37103      5143  TIP3      OH2            31.4591960130       -9.5949161227      -29.6642632508  TIP3      4951            0.0000000000
     37104      5143  TIP3      H1             31.8463653889      -10.2842738611      -30.2461329368  TIP3      4951            0.0000000000
     37105      5143  TIP3      H2             30.9977166073      -10.1220042716      -28.9880947755  TIP3      4951            0.0000000000
     37106      5144  TIP3      OH2            28.2765994127      -13.6092776509      -34.8363866051  TIP3      4952            0.0000000000
     37107      5144  TIP3      H1             27.3392239019      -13.6088128690      -34.5372739664  TIP3      4952            0.0000000000
     37108      5144  TIP3      H2             28.7660964179      -13.7720043023      -34.0141306470  TIP3      4952            0.0000000000
     37109      5145  TIP3      OH2            23.0799509951      -12.0557573401      -35.9576679407  TIP3      4953            0.0000000000
     37110      5145  TIP3      H1             22.1955485510      -11.9106484272      -36.3531574481  TIP3      4953            0.0000000000
     37111      5145  TIP3      H2             23.3667514497      -12.9016781904      -36.3395262852  TIP3      4953            0.0000000000
     37112      5146  TIP3      OH2            26.6968795953      -12.0264645408      -38.3697747669  TIP3      4954            0.0000000000
     37113      5146  TIP3      H1             27.6387365095      -11.9035154013      -38.1446061762  TIP3      4954            0.0000000000
     37114      5146  TIP3      H2             26.4947869490      -11.3227398341      -39.0044952354  TIP3      4954            0.0000000000
     37115      5147  TIP3      OH2            32.6156214221      -14.4082889164      -31.5749145703  TIP3      4955            0.0000000000
     37116      5147  TIP3      H1             31.9448699401      -14.3284524146      -30.8714476568  TIP3      4955            0.0000000000
     37117      5147  TIP3      H2             32.1203504830      -14.6164656703      -32.3814588462  TIP3      4955            0.0000000000
     37118      5148  TIP3      OH2            25.4346346159      -10.8993625693      -40.7446211442  TIP3      4956            0.0000000000
     37119      5148  TIP3      H1             24.8557134790      -11.1127388406      -41.4814721160  TIP3      4956            0.0000000000
     37120      5148  TIP3      H2             26.2504287184      -10.6086533961      -41.1930647386  TIP3      4956            0.0000000000
     37121      5149  TIP3      OH2            35.9173323812        1.2378541782      -25.2519285003  TIP3      4957            0.0000000000
     37122      5149  TIP3      H1             36.1041202725        1.6620434304      -26.1053436397  TIP3      4957            0.0000000000
     37123      5149  TIP3      H2             36.5859355860        1.6180507438      -24.6732013198  TIP3      4957            0.0000000000
     37124      5150  TIP3      OH2            23.5684416388       -6.1858870473      -25.7466238486  TIP3      4958            0.0000000000
     37125      5150  TIP3      H1             24.2616857082       -6.0464337879      -25.0766966644  TIP3      4958            0.0000000000
     37126      5150  TIP3      H2             22.8032508769       -6.1346749258      -25.1247925161  TIP3      4958            0.0000000000
     37127      5151  TIP3      OH2            29.5538059593      -10.8573206881      -32.9330790603  TIP3      4959            0.0000000000
     37128      5151  TIP3      H1             30.1606764159      -11.3925939054      -33.4514647358  TIP3      4959            0.0000000000
     37129      5151  TIP3      H2             29.4057315812      -11.4035172003      -32.1488762018  TIP3      4959            0.0000000000
     37130      5152  TIP3      OH2            24.5413359897      -14.7014483106      -36.5127705879  TIP3      4960            0.0000000000
     37131      5152  TIP3      H1             24.2492537220      -15.6311326722      -36.4943769670  TIP3      4960            0.0000000000
     37132      5152  TIP3      H2             25.3550078568      -14.7896052248      -37.0315211348  TIP3      4960            0.0000000000
     37133      5153  TIP3      OH2            28.1926693745      -12.5274819731      -30.5239409627  TIP3      4961            0.0000000000
     37134      5153  TIP3      H1             27.3671638161      -12.0124029000      -30.4311773058  TIP3      4961            0.0000000000
     37135      5153  TIP3      H2             28.7462840534      -12.1814524041      -29.7963448364  TIP3      4961            0.0000000000
     37136      5154  TIP3      OH2            28.7606412584       -6.2894220219      -38.8208394101  TIP3      4962            0.0000000000
     37137      5154  TIP3      H1             27.9831088633       -6.8018933725      -39.1384204214  TIP3      4962            0.0000000000
     37138      5154  TIP3      H2             28.5709931051       -6.2236140030      -37.8613513417  TIP3      4962            0.0000000000
     37139      5155  TIP3      OH2            35.6661296170       -7.1085989228      -30.0278625424  TIP3      4963            0.0000000000
     37140      5155  TIP3      H1             36.3944246136       -6.9243399785      -30.6701687147  TIP3      4963            0.0000000000
     37141      5155  TIP3      H2             34.9037126430       -7.0694887931      -30.6304980819  TIP3      4963            0.0000000000
     37142      5156  TIP3      OH2            32.5798035535      -13.5509106847      -40.5514944174  TIP3      4964            0.0000000000
     37143      5156  TIP3      H1             31.6626439519      -13.4033456158      -40.8608521153  TIP3      4964            0.0000000000
     37144      5156  TIP3      H2             32.9736168132      -12.6620596951      -40.4842033117  TIP3      4964            0.0000000000
     37145      5157  TIP3      OH2            30.2837044853       -6.0509524901      -27.6088348001  TIP3      4965            0.0000000000
     37146      5157  TIP3      H1             29.9233596618       -6.4677631792      -26.8168714993  TIP3      4965            0.0000000000
     37147      5157  TIP3      H2             30.0483426674       -5.1274332070      -27.4882238405  TIP3      4965            0.0000000000
     37148      5158  TIP3      OH2            34.0063939639      -11.6254268521      -39.6884122538  TIP3      4966            0.0000000000
     37149      5158  TIP3      H1             34.4703072456      -11.7541439689      -38.8370745042  TIP3      4966            0.0000000000
     37150      5158  TIP3      H2             33.5680374829      -10.7532008395      -39.7048388004  TIP3      4966            0.0000000000
     37151      5159  TIP3      OH2            23.8897064653       -6.9157235027      -33.0285472413  TIP3      4967            0.0000000000
     37152      5159  TIP3      H1             24.5813876690       -6.9936245406      -33.7133350221  TIP3      4967            0.0000000000
     37153      5159  TIP3      H2             23.9502798380       -7.7735036164      -32.5724128548  TIP3      4967            0.0000000000
     37154      5160  TIP3      OH2            30.8339283486       -4.8163399010      -39.8155680244  TIP3      4968            0.0000000000
     37155      5160  TIP3      H1             30.5337110213       -3.9960790072      -39.3801964443  TIP3      4968            0.0000000000
     37156      5160  TIP3      H2             30.1443078784       -5.4763996842      -39.5743041237  TIP3      4968            0.0000000000
     37157      5161  TIP3      OH2            20.8843127153       -8.5084821285      -27.7730355386  TIP3      4969            0.0000000000
     37158      5161  TIP3      H1             21.0516528284       -8.9396904946      -26.9112518225  TIP3      4969            0.0000000000
     37159      5161  TIP3      H2             20.2569193691       -9.1144804312      -28.1994188909  TIP3      4969            0.0000000000
     37160      5162  TIP3      OH2            27.8923980395       -8.9145402301      -25.6022742743  TIP3      4970            0.0000000000
     37161      5162  TIP3      H1             27.5808881271       -9.2541890249      -26.4494438480  TIP3      4970            0.0000000000
     37162      5162  TIP3      H2             28.8049252150       -9.2553461827      -25.5653460913  TIP3      4970            0.0000000000
     37163      5163  TIP3      OH2            32.5802116443       -3.5845920219      -27.6627944948  TIP3      4971            0.0000000000
     37164      5163  TIP3      H1             31.6464177384       -3.4561679881      -27.8740280408  TIP3      4971            0.0000000000
     37165      5163  TIP3      H2             32.5649760308       -3.3280632111      -26.7202449143  TIP3      4971            0.0000000000
     37166      5164  TIP3      OH2            33.6884754497       -7.8120361031      -31.7436334210  TIP3      4972            0.0000000000
     37167      5164  TIP3      H1             32.7522750237       -8.0346868387      -31.8810353160  TIP3      4972            0.0000000000
     37168      5164  TIP3      H2             34.1659670941       -8.5530060227      -32.1557971699  TIP3      4972            0.0000000000
     37169      5165  TIP3      OH2            26.2621757442       -3.4718450426      -35.6762892670  TIP3      4973            0.0000000000
     37170      5165  TIP3      H1             26.7501708648       -2.6499835694      -35.8260955445  TIP3      4973            0.0000000000
     37171      5165  TIP3      H2             25.3682699204       -3.2265347731      -35.9500527798  TIP3      4973            0.0000000000
     37172      5166  TIP3      OH2            22.0056188453       -8.6328232782      -41.1032526827  TIP3      4974            0.0000000000
     37173      5166  TIP3      H1             22.6162248486       -7.9832403330      -40.6999447832  TIP3      4974            0.0000000000
     37174      5166  TIP3      H2             21.1339922946       -8.3284378005      -40.7867787995  TIP3      4974            0.0000000000
     37175      5167  TIP3      OH2            27.6707134053       -5.7794149362      -36.1416894715  TIP3      4975            0.0000000000
     37176      5167  TIP3      H1             27.3632208450       -4.8630614842      -36.0199542602  TIP3      4975            0.0000000000
     37177      5167  TIP3      H2             26.9620156013       -6.2773740635      -35.6861142527  TIP3      4975            0.0000000000
     37178      5168  TIP3      OH2            28.1305478688       -1.6164601723      -29.7272614369  TIP3      4976            0.0000000000
     37179      5168  TIP3      H1             28.5659070211       -0.7951882080      -29.9932659882  TIP3      4976            0.0000000000
     37180      5168  TIP3      H2             28.7456974995       -1.9540602216      -29.0537084510  TIP3      4976            0.0000000000
     37181      5169  TIP3      OH2            26.3704671358       -0.7825711835      -36.6169033483  TIP3      4977            0.0000000000
     37182      5169  TIP3      H1             25.4036220630       -0.6644742707      -36.4452783363  TIP3      4977            0.0000000000
     37183      5169  TIP3      H2             26.7124932562        0.0425032568      -36.2221862700  TIP3      4977            0.0000000000
     37184      5170  TIP3      OH2            31.6860845259       -5.5979781862      -30.0904230811  TIP3      4978            0.0000000000
     37185      5170  TIP3      H1             31.3245496866       -5.8017596366      -29.2010589719  TIP3      4978            0.0000000000
     37186      5170  TIP3      H2             32.3027901066       -6.3249070282      -30.2636099632  TIP3      4978            0.0000000000
     37187      5171  TIP3      OH2            33.9608674190       -4.6026552969      -41.0054922555  TIP3      4979            0.0000000000
     37188      5171  TIP3      H1             34.2789544851       -5.0044017294      -40.1710027316  TIP3      4979            0.0000000000
     37189      5171  TIP3      H2             33.0032548334       -4.7361108287      -40.9230751115  TIP3      4979            0.0000000000
     37190      5172  TIP3      OH2            34.4509609460       -1.0389311111      -27.6039683679  TIP3      4980            0.0000000000
     37191      5172  TIP3      H1             33.7514634388       -1.5410254591      -28.0720860098  TIP3      4980            0.0000000000
     37192      5172  TIP3      H2             34.6783802383       -0.3328586659      -28.2398624309  TIP3      4980            0.0000000000
     37193      5173  TIP3      OH2            22.5299152769      -13.7783082756      -28.2040095548  TIP3      4981            0.0000000000
     37194      5173  TIP3      H1             21.6480075517      -13.3869948787      -28.2387099092  TIP3      4981            0.0000000000
     37195      5173  TIP3      H2             22.4400078306      -14.6316266083      -27.7560869499  TIP3      4981            0.0000000000
     37196      5174  TIP3      OH2            34.7767937567       -5.9781647850      -38.7921107777  TIP3      4982            0.0000000000
     37197      5174  TIP3      H1             34.5387359197       -6.7167056861      -38.2022137914  TIP3      4982            0.0000000000
     37198      5174  TIP3      H2             35.7037724737       -5.8268261053      -38.5288940549  TIP3      4982            0.0000000000
     37199      5175  TIP3      OH2            22.1449100732       -1.9857005602      -29.7859299024  TIP3      4983            0.0000000000
     37200      5175  TIP3      H1             22.4363298015       -2.9100702624      -29.7813418985  TIP3      4983            0.0000000000
     37201      5175  TIP3      H2             22.4290664103       -1.6976202407      -28.9103627628  TIP3      4983            0.0000000000
     37202      5176  TIP3      OH2            26.9097827518       -3.9311184011      -40.0456208301  TIP3      4984            0.0000000000
     37203      5176  TIP3      H1             27.1088914662       -4.5414158044      -39.3108267329  TIP3      4984            0.0000000000
     37204      5176  TIP3      H2             26.7584122019       -3.0803512092      -39.6027913977  TIP3      4984            0.0000000000
     37205      5177  TIP3      OH2            23.3746529522       -6.6820510801      -39.6242432868  TIP3      4985            0.0000000000
     37206      5177  TIP3      H1             22.7203226243       -6.2762539527      -39.0141361015  TIP3      4985            0.0000000000
     37207      5177  TIP3      H2             23.9435182422       -5.9235977489      -39.8357319409  TIP3      4985            0.0000000000
     37208      5178  TIP3      OH2            31.2328773121      -14.0052185733      -29.2712202807  TIP3      4986            0.0000000000
     37209      5178  TIP3      H1             31.9730166132      -13.9368795325      -28.6515348230  TIP3      4986            0.0000000000
     37210      5178  TIP3      H2             30.8591162641      -14.8821242696      -29.0653088216  TIP3      4986            0.0000000000
     37211      5179  TIP3      OH2            32.0200574394      -14.3410461520      -38.1132653830  TIP3      4987            0.0000000000
     37212      5179  TIP3      H1             32.2678049118      -14.0228195327      -39.0146758574  TIP3      4987            0.0000000000
     37213      5179  TIP3      H2             32.6794970466      -14.0362811110      -37.4980561449  TIP3      4987            0.0000000000
     37214      5180  TIP3      OH2            29.7373128881       -2.2366732096      -39.2973335662  TIP3      4988            0.0000000000
     37215      5180  TIP3      H1             29.0203095810       -1.6279683426      -39.0791059678  TIP3      4988            0.0000000000
     37216      5180  TIP3      H2             30.3345380539       -1.7368817707      -39.9018983460  TIP3      4988            0.0000000000
     37217      5181  TIP3      OH2            29.2432344905      -12.6771524467      -37.3538001533  TIP3      4989            0.0000000000
     37218      5181  TIP3      H1             29.9991186517      -12.0845620501      -37.2862424070  TIP3      4989            0.0000000000
     37219      5181  TIP3      H2             28.9341019865      -12.8176930835      -36.4346675796  TIP3      4989            0.0000000000
     37220      5182  TIP3      OH2            29.8072473649      -11.6526186287      -28.1848156988  TIP3      4990            0.0000000000
     37221      5182  TIP3      H1             29.8920505206      -11.0809606004      -27.3956628272  TIP3      4990            0.0000000000
     37222      5182  TIP3      H2             30.4587453205      -12.3560786803      -28.0677634934  TIP3      4990            0.0000000000
     37223      5183  TIP3      OH2            30.0676202352      -15.6030856923      -36.4954114486  TIP3      4991            0.0000000000
     37224      5183  TIP3      H1             29.7525195727      -14.9892655893      -35.8136285141  TIP3      4991            0.0000000000
     37225      5183  TIP3      H2             30.7744818322      -15.0677163229      -36.9177351842  TIP3      4991            0.0000000000
     37226      5184  TIP3      OH2            27.0050539059       -1.1592074282      -39.2954483475  TIP3      4992            0.0000000000
     37227      5184  TIP3      H1             27.1717539853       -0.3069383970      -39.7629939738  TIP3      4992            0.0000000000
     37228      5184  TIP3      H2             26.7851297797       -0.8357600103      -38.3791360781  TIP3      4992            0.0000000000
     37229      5185  TIP3      OH2            25.7527487573      -14.4930174372      -39.7896436508  TIP3      4993            0.0000000000
     37230      5185  TIP3      H1             25.7011937792      -13.6214291421      -39.3408060524  TIP3      4993            0.0000000000
     37231      5185  TIP3      H2             26.6399430055      -14.7617569594      -39.4522688196  TIP3      4993            0.0000000000
     37232      5186  TIP3      OH2            35.8464063284      -14.0097397136      -27.4916092776  TIP3      4994            0.0000000000
     37233      5186  TIP3      H1             35.0155541880      -13.4761341403      -27.4713996203  TIP3      4994            0.0000000000
     37234      5186  TIP3      H2             36.2496806587      -13.7379964727      -28.3162291331  TIP3      4994            0.0000000000
     37235      5187  TIP3      OH2            34.5874461502      -10.0023663631      -33.2824175737  TIP3      4995            0.0000000000
     37236      5187  TIP3      H1             33.7523952869      -10.4332954115      -33.5368108795  TIP3      4995            0.0000000000
     37237      5187  TIP3      H2             35.0101574952      -10.6975581181      -32.7689033052  TIP3      4995            0.0000000000
     37238      5188  TIP3      OH2            23.9965544700       -4.0695716834      -40.7039531405  TIP3      4996            0.0000000000
     37239      5188  TIP3      H1             24.6156291755       -3.4135647944      -40.3889656845  TIP3      4996            0.0000000000
     37240      5188  TIP3      H2             24.5007151397       -4.5474491072      -41.3922586461  TIP3      4996            0.0000000000
     37241      5189  TIP3      OH2            22.4076467647      -11.4243812342      -41.5452352616  TIP3      4997            0.0000000000
     37242      5189  TIP3      H1             22.3473896446      -10.4535725137      -41.3892624496  TIP3      4997            0.0000000000
     37243      5189  TIP3      H2             21.5000721359      -11.5884745498      -41.8617417299  TIP3      4997            0.0000000000
     37244      5190  TIP3      OH2            35.8626196623       -0.7622082263      -31.6322348514  TIP3      4998            0.0000000000
     37245      5190  TIP3      H1             35.8094304076       -0.1248718656      -32.3544014064  TIP3      4998            0.0000000000
     37246      5190  TIP3      H2             36.8089060964       -0.6831599005      -31.4007110211  TIP3      4998            0.0000000000
     37247      5191  TIP3      OH2            23.1404634532      -16.6150138596      -32.8322945088  TIP3      4999            0.0000000000
     37248      5191  TIP3      H1             22.9421225030      -16.5963373173      -33.7962897584  TIP3      4999            0.0000000000
     37249      5191  TIP3      H2             22.7206738348      -17.4628914663      -32.5774839501  TIP3      4999            0.0000000000
     37250      5192  TIP3      OH2            22.0946291956       -2.6959682676      -36.6868139321  TIP3      5000            0.0000000000
     37251      5192  TIP3      H1             21.2377826080       -2.2471190185      -36.7138721452  TIP3      5000            0.0000000000
     37252      5192  TIP3      H2             22.5726469051       -2.2221767496      -37.3816876637  TIP3      5000            0.0000000000
     37253      5193  TIP3      OH2            21.3896147310       -0.0902284303      -25.4477483319  TIP3      5001            0.0000000000
     37254      5193  TIP3      H1             21.8685209197       -0.2559181663      -24.6150675146  TIP3      5001            0.0000000000
     37255      5193  TIP3      H2             20.8804264009       -0.9063649327      -25.5647529548  TIP3      5001            0.0000000000
     37256      5194  TIP3      OH2            30.4464442807       -1.5977583308      -41.7796832629  TIP3      5002            0.0000000000
     37257      5194  TIP3      H1             29.6709203879       -2.0898341383      -42.0466401286  TIP3      5002            0.0000000000
     37258      5194  TIP3      H2             31.0027102415       -1.9689386555      -42.4813374529  TIP3      5002            0.0000000000
     37259      5195  TIP3      OH2            32.5640920237       -2.7625570218      -25.0831498976  TIP3      5003            0.0000000000
     37260      5195  TIP3      H1             32.1803365408       -3.6090450669      -24.7673964635  TIP3      5003            0.0000000000
     37261      5195  TIP3      H2             33.2870734775       -2.6252866458      -24.4368577246  TIP3      5003            0.0000000000
     37262      5196  TIP3      OH2            34.6602297229       -1.8555565785      -42.1954640534  TIP3      5004            0.0000000000
     37263      5196  TIP3      H1             34.9459157944       -2.6459208985      -41.7116161127  TIP3      5004            0.0000000000
     37264      5196  TIP3      H2             35.4402777450       -1.6114998548      -42.7045895824  TIP3      5004            0.0000000000
     37265      5197  TIP3      OH2            21.2471283110       -6.2513364293      -24.4910218385  TIP3      5005            0.0000000000
     37266      5197  TIP3      H1             21.3630055503       -7.2001692933      -24.6796200565  TIP3      5005            0.0000000000
     37267      5197  TIP3      H2             20.4452127524       -6.0214737748      -24.9786579510  TIP3      5005            0.0000000000
     37268      5198  TIP3      OH2            25.6911625567       -5.8311314989      -42.2281991032  TIP3      5006            0.0000000000
     37269      5198  TIP3      H1             25.6840716822       -6.6872916203      -41.7841303652  TIP3      5006            0.0000000000
     37270      5198  TIP3      H2             26.2051074108       -6.0891869252      -43.0197497753  TIP3      5006            0.0000000000
     37271      5199  TIP3      OH2            27.9712788377       -6.2847733325      -25.0366533980  TIP3      5007            0.0000000000
     37272      5199  TIP3      H1             27.5875337983       -5.9637060312      -25.8707113794  TIP3      5007            0.0000000000
     37273      5199  TIP3      H2             27.9984120046       -7.2664169128      -25.1257428768  TIP3      5007            0.0000000000
     37274      5200  TIP3      OH2            33.5951269699       -6.4415894205      -27.6255343005  TIP3      5008            0.0000000000
     37275      5200  TIP3      H1             34.3855354346       -5.8474893396      -27.6857302661  TIP3      5008            0.0000000000
     37276      5200  TIP3      H2             32.9142302946       -5.7639052757      -27.5691422024  TIP3      5008            0.0000000000
     37277      5201  TIP3      OH2            22.1488384846       -9.0327496201      -25.0017744050  TIP3      5009            0.0000000000
     37278      5201  TIP3      H1             22.5065200849       -9.9147431463      -25.1367888528  TIP3      5009            0.0000000000
     37279      5201  TIP3      H2             21.8414022586       -9.0508271037      -24.0790973005  TIP3      5009            0.0000000000
     37280      5202  TIP3      OH2            26.7800189044       -7.8690877190      -39.9656748349  TIP3      5010            0.0000000000
     37281      5202  TIP3      H1             26.2783763893       -8.4103739338      -39.3337376127  TIP3      5010            0.0000000000
     37282      5202  TIP3      H2             27.0794391868       -8.5587307384      -40.6027957903  TIP3      5010            0.0000000000
     37283      5203  TIP3      OH2            26.0233503232      -10.0974078474      -27.6730348493  TIP3      5011            0.0000000000
     37284      5203  TIP3      H1             25.4410198732       -9.3699339478      -27.3955377077  TIP3      5011            0.0000000000
     37285      5203  TIP3      H2             26.4187546289       -9.7303580326      -28.4832077466  TIP3      5011            0.0000000000
     37286      5204  TIP3      OH2            27.8231778855       -9.6985183125      -41.7661058023  TIP3      5012            0.0000000000
     37287      5204  TIP3      H1             27.7375959343       -9.8419398494      -42.7162177115  TIP3      5012            0.0000000000
     37288      5204  TIP3      H2             28.7983012856       -9.5954693649      -41.6636328880  TIP3      5012            0.0000000000
     37289      5205  TIP3      OH2            31.0855633054       -7.5159810783      -24.2808480757  TIP3      5013            0.0000000000
     37290      5205  TIP3      H1             32.0308642259       -7.5487107465      -24.4578571412  TIP3      5013            0.0000000000
     37291      5205  TIP3      H2             30.9353870683       -8.3252784743      -23.7747460913  TIP3      5013            0.0000000000
     37292      5206  TIP3      OH2            26.4261771089      -12.7194144472      -26.5834166108  TIP3      5014            0.0000000000
     37293      5206  TIP3      H1             26.5437951468      -13.4268218437      -27.2450153177  TIP3      5014            0.0000000000
     37294      5206  TIP3      H2             26.3919943613      -11.9114053442      -27.1382660855  TIP3      5014            0.0000000000
     37295      5207  TIP3      OH2            26.8336268064      -14.3380924685      -29.0572090450  TIP3      5015            0.0000000000
     37296      5207  TIP3      H1             27.3477438348      -13.8758136270      -29.7606546720  TIP3      5015            0.0000000000
     37297      5207  TIP3      H2             25.9437079460      -14.4222162629      -29.4678526653  TIP3      5015            0.0000000000
     37298      5208  TIP3      OH2            28.3733986463       -8.8636602730      -28.8135660222  TIP3      5016            0.0000000000
     37299      5208  TIP3      H1             29.1338433161       -9.0215460339      -29.3831862982  TIP3      5016            0.0000000000
     37300      5208  TIP3      H2             28.0238095774       -8.0180298878      -29.1354662274  TIP3      5016            0.0000000000
     37301      5209  TIP3      OH2            32.8324919790      -11.0494123518      -23.8647640549  TIP3      5017            0.0000000000
     37302      5209  TIP3      H1             33.0145778165      -11.9917373516      -23.8646046275  TIP3      5017            0.0000000000
     37303      5209  TIP3      H2             33.7083500836      -10.6553535162      -23.8598521285  TIP3      5017            0.0000000000
     37304      5210  TIP3      OH2            34.1457217967       -8.2500158451      -25.6741885984  TIP3      5018            0.0000000000
     37305      5210  TIP3      H1             33.8427276675       -7.5757261162      -26.3203610367  TIP3      5018            0.0000000000
     37306      5210  TIP3      H2             35.0665814246       -8.3792530629      -25.9038500945  TIP3      5018            0.0000000000
     37307      5211  TIP3      OH2            24.8734776025      -11.4793760537      -24.6837288894  TIP3      5019            0.0000000000
     37308      5211  TIP3      H1             24.1157429367      -12.0558338224      -24.8745502947  TIP3      5019            0.0000000000
     37309      5211  TIP3      H2             25.5513376461      -11.8374183984      -25.2863904767  TIP3      5019            0.0000000000
     37310      5212  TIP3      OH2            27.6228004452      -16.9009528865      -28.6570847965  TIP3      5020            0.0000000000
     37311      5212  TIP3      H1             27.4531428483      -15.9369302580      -28.7606610041  TIP3      5020            0.0000000000
     37312      5212  TIP3      H2             26.8717675988      -17.2685576632      -29.1552317584  TIP3      5020            0.0000000000
     37313      5213  TIP3      OH2            28.9102974534      -12.6223394881      -25.0593263897  TIP3      5021            0.0000000000
     37314      5213  TIP3      H1             28.5931257865      -12.7601138755      -24.1449728664  TIP3      5021            0.0000000000
     37315      5213  TIP3      H2             28.0867357251      -12.7649653915      -25.5574773311  TIP3      5021            0.0000000000
     37316      5214  TIP3      OH2            31.5721929577      -13.4747457592      -25.9812122785  TIP3      5022            0.0000000000
     37317      5214  TIP3      H1             30.6189619050      -13.3760459740      -25.8183230695  TIP3      5022            0.0000000000
     37318      5214  TIP3      H2             31.8925967817      -14.0550772202      -25.2729932136  TIP3      5022            0.0000000000
     37319      5215  TIP3      OH2            33.2849927533      -14.8000021779      -24.0420016026  TIP3      5023            0.0000000000
     37320      5215  TIP3      H1             33.1971196976      -15.7576284474      -24.0042325105  TIP3      5023            0.0000000000
     37321      5215  TIP3      H2             32.9381431450      -14.5076920123      -23.1740250719  TIP3      5023            0.0000000000
     37322      5216  TIP3      OH2            22.9767483553      -13.5480319062      -24.9332964849  TIP3      5024            0.0000000000
     37323      5216  TIP3      H1             23.2703959828      -14.2696269378      -25.5233001043  TIP3      5024            0.0000000000
     37324      5216  TIP3      H2             22.9185897288      -13.9899711016      -24.0735337359  TIP3      5024            0.0000000000
     37325      5217  TIP3      OH2            27.8528736677      -17.5259519179      -25.9678453749  TIP3      5025            0.0000000000
     37326      5217  TIP3      H1             28.5173573314      -18.2385669165      -26.0080682223  TIP3      5025            0.0000000000
     37327      5217  TIP3      H2             27.7020921983      -17.3615284609      -26.9196497132  TIP3      5025            0.0000000000
     37328      5218  TIP3      OH2            28.2796461380      -15.8803260445      -23.9411018951  TIP3      5026            0.0000000000
     37329      5218  TIP3      H1             28.0190969034      -16.4159259827      -24.7212379031  TIP3      5026            0.0000000000
     37330      5218  TIP3      H2             27.6296966156      -15.1509841664      -23.9369898882  TIP3      5026            0.0000000000
     37331      5219  TIP3      OH2            27.7005204917        0.9451881300      -40.7834184715  TIP3      5027            0.0000000000
     37332      5219  TIP3      H1             28.6515575815        1.1369746898      -40.5975910853  TIP3      5027            0.0000000000
     37333      5219  TIP3      H2             27.4942907209        1.6835896216      -41.3643612128  TIP3      5027            0.0000000000
     37334      5220  TIP3      OH2            21.2590942102       -4.3924467099      -41.2112741306  TIP3      5028            0.0000000000
     37335      5220  TIP3      H1             22.2173448938       -4.3065239252      -40.9952723102  TIP3      5028            0.0000000000
     37336      5220  TIP3      H2             21.2818000210       -4.9971096508      -41.9579909696  TIP3      5028            0.0000000000
     37337      5221  TIP3      OH2            20.0031181625        0.9788659634      -36.2372565732  TIP3      5029            0.0000000000
     37338      5221  TIP3      H1             19.2876392102        0.4944313880      -36.7053863976  TIP3      5029            0.0000000000
     37339      5221  TIP3      H2             20.2870126539        0.3199554038      -35.5781630745  TIP3      5029            0.0000000000
     37340      5222  TIP3      OH2            20.8298318656       -0.8909056222      -34.3672102059  TIP3      5030            0.0000000000
     37341      5222  TIP3      H1             20.4747095332       -1.7685709593      -34.1644390150  TIP3      5030            0.0000000000
     37342      5222  TIP3      H2             21.0653509641       -0.5622646428      -33.4833954703  TIP3      5030            0.0000000000
     37343      5223  TIP3      OH2            36.2872395369       -2.8013669701      -29.2058714318  TIP3      5031            0.0000000000
     37344      5223  TIP3      H1             35.6324463813       -2.4328415927      -28.6005892566  TIP3      5031            0.0000000000
     37345      5223  TIP3      H2             35.7698918894       -3.2269675285      -29.9112828251  TIP3      5031            0.0000000000
     37346      5224  TIP3      OH2            35.3232705184       -9.8704331053      -35.8503055918  TIP3      5032            0.0000000000
     37347      5224  TIP3      H1             35.6886045045      -10.7584095194      -35.8018730206  TIP3      5032            0.0000000000
     37348      5224  TIP3      H2             35.5118044581       -9.5778669589      -34.9240521837  TIP3      5032            0.0000000000
     37349      5225  TIP3      OH2            20.8816407421       -7.8194821445      -31.8763860359  TIP3      5033            0.0000000000
     37350      5225  TIP3      H1             21.0688745588       -7.8952071821      -32.8380711332  TIP3      5033            0.0000000000
     37351      5225  TIP3      H2             21.7700779762       -7.9984284152      -31.5121739822  TIP3      5033            0.0000000000
     37352      5226  TIP3      OH2            35.7535379744      -13.8107072133      -42.2890999359  TIP3      5034            0.0000000000
     37353      5226  TIP3      H1             36.4843695755      -14.2897062321      -41.8642315408  TIP3      5034            0.0000000000
     37354      5226  TIP3      H2             35.0092974681      -14.4080744510      -42.2291367810  TIP3      5034            0.0000000000
     37355      5227  TIP3      OH2            35.4671537063      -12.3548603258      -37.5899226981  TIP3      5035            0.0000000000
     37356      5227  TIP3      H1             35.8125850565      -13.2086522240      -37.2365418153  TIP3      5035            0.0000000000
     37357      5227  TIP3      H2             36.3121632376      -12.0197451268      -37.9495357243  TIP3      5035            0.0000000000
     37358      5228  TIP3      OH2           -37.0458631096      -12.6007758466      -32.0514556166  TIP3      5036            0.0000000000
     37359      5228  TIP3      H1            -36.1607605250      -12.2323068545      -32.1697343723  TIP3      5036            0.0000000000
     37360      5228  TIP3      H2            -37.2492795181      -11.9576310421      -31.3489669541  TIP3      5036            0.0000000000
     37361      5229  TIP3      OH2            36.2585128553      -11.0006379890      -29.0173604098  TIP3      5037            0.0000000000
     37362      5229  TIP3      H1             35.3276769538      -10.7258111190      -28.9005415564  TIP3      5037            0.0000000000
     37363      5229  TIP3      H2             36.6308716040      -10.2888106159      -29.5702908873  TIP3      5037            0.0000000000
     37364      5230  TIP3      OH2            20.4965541728      -12.6316421093      -25.9162874090  TIP3      5038            0.0000000000
     37365      5230  TIP3      H1             21.4077348990      -12.6852999465      -25.5423599096  TIP3      5038            0.0000000000
     37366      5230  TIP3      H2             20.0568836354      -13.3051025384      -25.3553837807  TIP3      5038            0.0000000000
     37367      5231  TIP3      OH2            35.3056012397      -15.3191077520      -36.7854249446  TIP3      5039            0.0000000000
     37368      5231  TIP3      H1             36.2428752201      -15.5085917772      -36.5553721763  TIP3      5039            0.0000000000
     37369      5231  TIP3      H2             35.3651135612      -15.7520167655      -37.6655430263  TIP3      5039            0.0000000000
     37370      5232  TIP3      OH2            21.6932225826      -14.2265552631      -32.8449641638  TIP3      5040            0.0000000000
     37371      5232  TIP3      H1             22.1802502148      -15.0475013481      -32.6246404939  TIP3      5040            0.0000000000
     37372      5232  TIP3      H2             22.2613106858      -13.5280523950      -32.4939739924  TIP3      5040            0.0000000000
     37373      5233  TIP3      OH2            19.9998057301      -11.2430441326      -31.8123391513  TIP3      5041            0.0000000000
     37374      5233  TIP3      H1             20.5447453344      -11.4628667500      -32.5993693576  TIP3      5041            0.0000000000
     37375      5233  TIP3      H2             20.4409184124      -10.4119285658      -31.5729963907  TIP3      5041            0.0000000000
     37376      5234  TIP3      OH2            20.3502176279      -14.9625347287      -37.7686146468  TIP3      5042            0.0000000000
     37377      5234  TIP3      H1             19.4071938486      -14.7754114130      -37.8963701275  TIP3      5042            0.0000000000
     37378      5234  TIP3      H2             20.7629707942      -14.4650993464      -38.4874490408  TIP3      5042            0.0000000000
     37379      5235  TIP3      OH2            34.9097360652       -0.1919750091      -35.6852458940  TIP3      5043            0.0000000000
     37380      5235  TIP3      H1             35.5654414825       -0.5015849933      -36.3353763503  TIP3      5043            0.0000000000
     37381      5235  TIP3      H2             35.4593385999        0.4175302712      -35.1687990060  TIP3      5043            0.0000000000
     37382      5236  TIP3      OH2            20.3174159252      -16.2176555880      -29.3776069670  TIP3      5044            0.0000000000
     37383      5236  TIP3      H1             19.6054239093      -16.6298440995      -28.8551543189  TIP3      5044            0.0000000000
     37384      5236  TIP3      H2             19.8481240370      -15.6907589277      -30.0701741798  TIP3      5044            0.0000000000
     37385      5237  TIP3      OH2            22.5149372251       -3.0502768458      -25.2705610255  TIP3      5045            0.0000000000
     37386      5237  TIP3      H1             21.6811650349       -2.8949996266      -25.7359995508  TIP3      5045            0.0000000000
     37387      5237  TIP3      H2             22.2187463794       -3.1945889282      -24.3659047732  TIP3      5045            0.0000000000
     37388      5238  TIP3      OH2            25.4328021960       -2.1019776680      -29.0246547791  TIP3      5046            0.0000000000
     37389      5238  TIP3      H1             25.0935122076       -1.2422254044      -29.3069497530  TIP3      5046            0.0000000000
     37390      5238  TIP3      H2             26.3628166486       -2.0143769667      -29.3252428260  TIP3      5046            0.0000000000
     37391      5239  TIP3      OH2            29.7560884687       -0.6918384725      -26.0889044644  TIP3      5047            0.0000000000
     37392      5239  TIP3      H1             29.9641755785       -1.0157532449      -25.2028237226  TIP3      5047            0.0000000000
     37393      5239  TIP3      H2             30.6422610243       -0.3892587141      -26.3827523383  TIP3      5047            0.0000000000
     37394      5240  TIP3      OH2            32.0559957990        0.5768856987      -26.8184968661  TIP3      5048            0.0000000000
     37395      5240  TIP3      H1             32.7893669037       -0.0121799989      -27.0523915345  TIP3      5048            0.0000000000
     37396      5240  TIP3      H2             32.4369701277        1.0202083036      -26.0346476286  TIP3      5048            0.0000000000
     37397      5241  TIP3      OH2            22.8590562477        1.1397480905      -29.0289755965  TIP3      5049            0.0000000000
     37398      5241  TIP3      H1             22.1285828986        1.6313932439      -29.4324249964  TIP3      5049            0.0000000000
     37399      5241  TIP3      H2             22.5268230542        0.9427770263      -28.1430095721  TIP3      5049            0.0000000000
     37400      5242  TIP3      OH2            25.3328559944        0.7157240732      -29.9571161030  TIP3      5050            0.0000000000
     37401      5242  TIP3      H1             24.4408527213        0.8586081091      -29.5603211164  TIP3      5050            0.0000000000
     37402      5242  TIP3      H2             25.2723680613        1.3051928678      -30.7318166760  TIP3      5050            0.0000000000
     37403      5243  TIP3      OH2            30.0905344225        0.6356885864      -30.8162464173  TIP3      5051            0.0000000000
     37404      5243  TIP3      H1             29.5550062786        1.1712584675      -31.4250906428  TIP3      5051            0.0000000000
     37405      5243  TIP3      H2             30.1613808241        1.2505279279      -30.0490458281  TIP3      5051            0.0000000000
     37406      5244  TIP3      OH2            32.3814829685       -0.5359878598      -29.8967505988  TIP3      5052            0.0000000000
     37407      5244  TIP3      H1             31.4520745417       -0.3021656331      -30.0828486246  TIP3      5052            0.0000000000
     37408      5244  TIP3      H2             32.7500801464        0.3492943030      -29.7530593904  TIP3      5052            0.0000000000
     37409      5245  TIP3      OH2            34.7314483711        1.0028868162      -29.5939493481  TIP3      5053            0.0000000000
     37410      5245  TIP3      H1             34.7832395211        1.9745595164      -29.7240671511  TIP3      5053            0.0000000000
     37411      5245  TIP3      H2             35.2382236973        0.6716030328      -30.3417724917  TIP3      5053            0.0000000000
     37412      5246  TIP3      OH2            22.3164990317       -0.2143681997      -32.0845549857  TIP3      5054            0.0000000000
     37413      5246  TIP3      H1             22.2375215675       -0.6720413880      -31.2191983638  TIP3      5054            0.0000000000
     37414      5246  TIP3      H2             23.1308703043       -0.5899174747      -32.4749905914  TIP3      5054            0.0000000000
     37415      5247  TIP3      OH2            24.3960476682       -1.5057503905      -33.4334669785  TIP3      5055            0.0000000000
     37416      5247  TIP3      H1             24.2246833604       -2.4379970686      -33.1978817015  TIP3      5055            0.0000000000
     37417      5247  TIP3      H2             25.2504429641       -1.3541509633      -32.9737781326  TIP3      5055            0.0000000000
     37418      5248  TIP3      OH2            26.9700623958       -1.0175104297      -32.5584304081  TIP3      5056            0.0000000000
     37419      5248  TIP3      H1             27.1543891821       -1.9383063104      -32.8193010906  TIP3      5056            0.0000000000
     37420      5248  TIP3      H2             27.0401469357       -1.0758181934      -31.5941363016  TIP3      5056            0.0000000000
     37421      5249  TIP3      OH2            30.4401544825      -15.3744130832      -33.4089193457  TIP3      5057            0.0000000000
     37422      5249  TIP3      H1             29.7713894350      -16.0238125318      -33.1386641991  TIP3      5057            0.0000000000
     37423      5249  TIP3      H2             31.0047511602      -15.8934467598      -33.9968958107  TIP3      5057            0.0000000000
     37424      5250  TIP3      OH2            35.6013908586      -17.3258262983      -33.3328508373  TIP3      5058            0.0000000000
     37425      5250  TIP3      H1             36.1819387375      -16.7118970505      -33.7903635866  TIP3      5058            0.0000000000
     37426      5250  TIP3      H2             34.7118725472      -16.9675777325      -33.5541180092  TIP3      5058            0.0000000000
     37427      5251  TIP3      OH2            22.8085354952      -16.7537826230      -35.5457691474  TIP3      5059            0.0000000000
     37428      5251  TIP3      H1             22.0226250273      -16.9620590728      -36.0911219917  TIP3      5059            0.0000000000
     37429      5251  TIP3      H2             23.2877539135      -17.6014104220      -35.6159209379  TIP3      5059            0.0000000000
     37430      5252  TIP3      OH2            21.5680748682      -16.9944424064      -39.8373207641  TIP3      5060            0.0000000000
     37431      5252  TIP3      H1             22.0749368120      -16.3549112155      -40.3832273442  TIP3      5060            0.0000000000
     37432      5252  TIP3      H2             21.0125165332      -16.4226536654      -39.2843614863  TIP3      5060            0.0000000000
     37433      5253  TIP3      OH2            27.3009149419      -16.8178470786      -35.7816280951  TIP3      5061            0.0000000000
     37434      5253  TIP3      H1             28.2004024683      -16.4551950634      -35.8505096589  TIP3      5061            0.0000000000
     37435      5253  TIP3      H2             27.2573009998      -17.0378209612      -34.8528886332  TIP3      5061            0.0000000000
     37436      5254  TIP3      OH2            33.0193295410      -16.8360322222      -34.1494141960  TIP3      5062            0.0000000000
     37437      5254  TIP3      H1             32.9791077594      -16.6761293906      -35.0968200253  TIP3      5062            0.0000000000
     37438      5254  TIP3      H2             32.6044513975      -17.7244967836      -34.0387495747  TIP3      5062            0.0000000000
     37439      5255  TIP3      OH2            34.2390547719      -16.8382724105      -38.6126013212  TIP3      5063            0.0000000000
     37440      5255  TIP3      H1             33.5310174788      -16.1910258992      -38.6544581312  TIP3      5063            0.0000000000
     37441      5255  TIP3      H2             33.7842513482      -17.6418097364      -38.2939772696  TIP3      5063            0.0000000000
     37442      5256  TIP3      OH2            21.5172370462       -1.0317304162      -38.8390920558  TIP3      5064            0.0000000000
     37443      5256  TIP3      H1             20.8378918968       -1.0316861665      -39.5409347919  TIP3      5064            0.0000000000
     37444      5256  TIP3      H2             21.5347833526       -0.0835582374      -38.6622322220  TIP3      5064            0.0000000000
     37445      5257  TIP3      OH2            23.3461450604      -15.3261803650      -41.1875528105  TIP3      5065            0.0000000000
     37446      5257  TIP3      H1             23.8890150636      -15.8169129489      -41.8118419918  TIP3      5065            0.0000000000
     37447      5257  TIP3      H2             23.9677926979      -14.9035631921      -40.5605151949  TIP3      5065            0.0000000000
     37448      5258  TIP3      OH2            28.4775306101      -14.7872782446      -38.9499698519  TIP3      5066            0.0000000000
     37449      5258  TIP3      H1             28.7026645413      -15.3698203585      -38.2038949387  TIP3      5066            0.0000000000
     37450      5258  TIP3      H2             28.4943973424      -13.9402774278      -38.4548257615  TIP3      5066            0.0000000000
     37451      5259  TIP3      OH2            30.3322620505        0.4979374729      -40.4412516562  TIP3      5067            0.0000000000
     37452      5259  TIP3      H1             31.2997661471        0.5664785309      -40.6053020700  TIP3      5067            0.0000000000
     37453      5259  TIP3      H2             30.2056867528       -0.1582178368      -41.1624317239  TIP3      5067            0.0000000000
     37454      5260  TIP3      OH2            22.6820599756      -16.1930588754      -26.1228719202  TIP3      5068            0.0000000000
     37455      5260  TIP3      H1             22.3493822787      -17.0045540576      -25.6924162991  TIP3      5068            0.0000000000
     37456      5260  TIP3      H2             23.6103781366      -16.2314992135      -25.7813703042  TIP3      5068            0.0000000000
     37457      5261  TIP3      OH2            24.6980797410      -16.8580193867      -24.5114114935  TIP3      5069            0.0000000000
     37458      5261  TIP3      H1             25.5949633980      -17.1602008928      -24.7465092048  TIP3      5069            0.0000000000
     37459      5261  TIP3      H2             24.3782884859      -17.6614450223      -24.0775245131  TIP3      5069            0.0000000000
     37460      5262  TIP3      OH2            23.3832356892        0.0007826089      -41.8920958240  TIP3      5070            0.0000000000
     37461      5262  TIP3      H1             23.0230044726        0.2035742893      -41.0082063158  TIP3      5070            0.0000000000
     37462      5262  TIP3      H2             24.0753704499       -0.6317850928      -41.6962133468  TIP3      5070            0.0000000000
     37463      5263  TIP3      OH2            36.3235620595       -1.4921340787      -25.6074819405  TIP3      5071            0.0000000000
     37464      5263  TIP3      H1             35.5681209912       -1.6584381415      -26.2111519393  TIP3      5071            0.0000000000
     37465      5263  TIP3      H2             36.1748204780       -0.5393043200      -25.4839005369  TIP3      5071            0.0000000000
     37466      5264  TIP3      OH2           -24.6584574335       11.2499142862      -35.7016530795  TIP3      5072            0.0000000000
     37467      5264  TIP3      H1            -24.6635422691       12.2295667548      -35.7551748739  TIP3      5072            0.0000000000
     37468      5264  TIP3      H2            -25.3785841690       11.0142181460      -36.3089680495  TIP3      5072            0.0000000000
     37469      5265  TIP3      OH2           -25.8087587358       10.5084267799      -32.2087927352  TIP3      5073            0.0000000000
     37470      5265  TIP3      H1            -25.8139236401        9.8551240339      -31.4952990894  TIP3      5073            0.0000000000
     37471      5265  TIP3      H2            -26.1392003033       10.0054255364      -32.9691836674  TIP3      5073            0.0000000000
     37472      5266  TIP3      OH2           -33.3982314629       10.1665163801      -30.6860974993  TIP3      5074            0.0000000000
     37473      5266  TIP3      H1            -33.3363458176        9.4969552862      -29.9716599205  TIP3      5074            0.0000000000
     37474      5266  TIP3      H2            -32.6929041255       10.7720319990      -30.4206534087  TIP3      5074            0.0000000000
     37475      5267  TIP3      OH2           -22.1127890495       13.4583316825      -33.9294339294  TIP3      5075            0.0000000000
     37476      5267  TIP3      H1            -22.5158262791       12.7334076337      -33.4359315303  TIP3      5075            0.0000000000
     37477      5267  TIP3      H2            -22.0880261260       14.1635165211      -33.2569271312  TIP3      5075            0.0000000000
     37478      5268  TIP3      OH2           -32.5193565653       14.6121057822      -32.1351623468  TIP3      5076            0.0000000000
     37479      5268  TIP3      H1            -32.8395258793       13.7594262668      -32.4831899580  TIP3      5076            0.0000000000
     37480      5268  TIP3      H2            -31.5623724168       14.4378552728      -32.1085934097  TIP3      5076            0.0000000000
     37481      5269  TIP3      OH2           -35.6023501239        8.1805268571      -37.0637971622  TIP3      5077            0.0000000000
     37482      5269  TIP3      H1            -36.0771600056        8.9802260420      -36.7267196215  TIP3      5077            0.0000000000
     37483      5269  TIP3      H2            -36.3963979728        7.6484191322      -37.0992900711  TIP3      5077            0.0000000000
     37484      5270  TIP3      OH2           -35.2006975266       10.3513771723      -34.5672292537  TIP3      5078            0.0000000000
     37485      5270  TIP3      H1            -34.9118414185        9.5912368667      -34.0429800768  TIP3      5078            0.0000000000
     37486      5270  TIP3      H2            -34.4619671305       10.5144790423      -35.1695205251  TIP3      5078            0.0000000000
     37487      5271  TIP3      OH2           -24.9938517768       18.6099234043      -33.6926280445  TIP3      5079            0.0000000000
     37488      5271  TIP3      H1            -24.3447563914       17.9173953688      -33.9747631473  TIP3      5079            0.0000000000
     37489      5271  TIP3      H2            -25.2016895993       18.2854256998      -32.8164402584  TIP3      5079            0.0000000000
     37490      5272  TIP3      OH2           -27.4235112532       12.9126289746      -31.7478561450  TIP3      5080            0.0000000000
     37491      5272  TIP3      H1            -27.0836622546       12.2777779790      -32.3983936278  TIP3      5080            0.0000000000
     37492      5272  TIP3      H2            -26.6185991885       13.0633974627      -31.2215398075  TIP3      5080            0.0000000000
     37493      5273  TIP3      OH2           -18.8156178612        4.5614345660      -31.0104648734  TIP3      5081            0.0000000000
     37494      5273  TIP3      H1            -18.6509726107        5.1618013537      -30.2491343445  TIP3      5081            0.0000000000
     37495      5273  TIP3      H2            -18.2596358805        4.9801966074      -31.6826173402  TIP3      5081            0.0000000000
     37496      5274  TIP3      OH2           -24.2546895962        7.3759942456      -31.4260096161  TIP3      5082            0.0000000000
     37497      5274  TIP3      H1            -24.0926113525        6.4153900495      -31.4300968348  TIP3      5082            0.0000000000
     37498      5274  TIP3      H2            -24.3458006730        7.5306665062      -32.3859208588  TIP3      5082            0.0000000000
     37499      5275  TIP3      OH2           -31.1117580428        5.4527042883      -34.2073724794  TIP3      5083            0.0000000000
     37500      5275  TIP3      H1            -31.0315429850        6.3074761024      -34.6751067065  TIP3      5083            0.0000000000
     37501      5275  TIP3      H2            -31.5544630445        4.9111041761      -34.8857468132  TIP3      5083            0.0000000000
     37502      5276  TIP3      OH2           -23.3962219016        5.5447088583      -35.8437565895  TIP3      5084            0.0000000000
     37503      5276  TIP3      H1            -22.7443997161        5.2338784289      -35.1722743102  TIP3      5084            0.0000000000
     37504      5276  TIP3      H2            -22.8365177851        6.1170638876      -36.3918091450  TIP3      5084            0.0000000000
     37505      5277  TIP3      OH2           -34.5403102776        7.7936007607      -33.5261857047  TIP3      5085            0.0000000000
     37506      5277  TIP3      H1            -33.8200672877        7.3175013145      -33.0632020798  TIP3      5085            0.0000000000
     37507      5277  TIP3      H2            -34.3809770273        7.5210193162      -34.4342196357  TIP3      5085            0.0000000000
     37508      5278  TIP3      OH2           -29.3600720198        9.4278246941      -34.1679726594  TIP3      5086            0.0000000000
     37509      5278  TIP3      H1            -28.6915271654        8.8506505590      -33.7586484435  TIP3      5086            0.0000000000
     37510      5278  TIP3      H2            -29.8776657222        8.7654878552      -34.6632774033  TIP3      5086            0.0000000000
     37511      5279  TIP3      OH2           -18.3953475443        5.9749335224      -28.7228247229  TIP3      5087            0.0000000000
     37512      5279  TIP3      H1            -18.9940618622        6.7513628758      -28.8648525111  TIP3      5087            0.0000000000
     37513      5279  TIP3      H2            -18.3606614757        5.9016731107      -27.7635342810  TIP3      5087            0.0000000000
     37514      5280  TIP3      OH2           -32.2050324040        4.3421657532      -30.1942705565  TIP3      5088            0.0000000000
     37515      5280  TIP3      H1            -32.5021811667        4.9285411341      -30.9201470575  TIP3      5088            0.0000000000
     37516      5280  TIP3      H2            -32.8789575307        4.5866646167      -29.5078758935  TIP3      5088            0.0000000000
     37517      5281  TIP3      OH2           -24.9442795081       13.8420961682      -36.6219530032  TIP3      5089            0.0000000000
     37518      5281  TIP3      H1            -25.2255828328       13.5632657050      -37.5052193586  TIP3      5089            0.0000000000
     37519      5281  TIP3      H2            -25.2502284056       14.7748512804      -36.5753420544  TIP3      5089            0.0000000000
     37520      5282  TIP3      OH2           -29.6995999545       12.0073697672      -29.9365751830  TIP3      5090            0.0000000000
     37521      5282  TIP3      H1            -30.4169018751       12.6410723157      -29.7085653854  TIP3      5090            0.0000000000
     37522      5282  TIP3      H2            -28.9998835058       12.6127450637      -30.2184241600  TIP3      5090            0.0000000000
     37523      5283  TIP3      OH2           -21.6153239633        4.9044858484      -33.8396351616  TIP3      5091            0.0000000000
     37524      5283  TIP3      H1            -21.8109356397        4.1185520571      -33.3202218289  TIP3      5091            0.0000000000
     37525      5283  TIP3      H2            -20.9144476049        5.3243007684      -33.3113224411  TIP3      5091            0.0000000000
     37526      5284  TIP3      OH2           -32.6931371730        6.2112482844      -32.1356051669  TIP3      5092            0.0000000000
     37527      5284  TIP3      H1            -32.0702729506        6.9035031834      -31.8041813040  TIP3      5092            0.0000000000
     37528      5284  TIP3      H2            -32.1412972250        5.8179314208      -32.8574261815  TIP3      5092            0.0000000000
     37529      5285  TIP3      OH2           -31.2826579825       13.9949929012      -29.1134493025  TIP3      5093            0.0000000000
     37530      5285  TIP3      H1            -31.3204658753       14.9138776671      -29.4408710529  TIP3      5093            0.0000000000
     37531      5285  TIP3      H2            -32.1723966759       13.9194483989      -28.6958212987  TIP3      5093            0.0000000000
     37532      5286  TIP3      OH2           -35.2280241417       13.6655367987      -38.3436244325  TIP3      5094            0.0000000000
     37533      5286  TIP3      H1            -35.4094776525       13.9740299938      -39.2501560938  TIP3      5094            0.0000000000
     37534      5286  TIP3      H2            -35.1170727324       14.4817365210      -37.8189644340  TIP3      5094            0.0000000000
     37535      5287  TIP3      OH2           -21.5850924881       15.3035416733      -31.5847190337  TIP3      5095            0.0000000000
     37536      5287  TIP3      H1            -22.5486672740       15.4000937691      -31.4339205378  TIP3      5095            0.0000000000
     37537      5287  TIP3      H2            -21.3154091260       16.2244498719      -31.7560188883  TIP3      5095            0.0000000000
     37538      5288  TIP3      OH2           -21.2589771939        3.5821926019      -30.1605970794  TIP3      5096            0.0000000000
     37539      5288  TIP3      H1            -21.9896779404        4.2053399097      -30.2635823481  TIP3      5096            0.0000000000
     37540      5288  TIP3      H2            -20.5519729429        3.9929304102      -30.6992655056  TIP3      5096            0.0000000000
     37541      5289  TIP3      OH2           -28.3042522732        1.6995367101      -32.7474978719  TIP3      5097            0.0000000000
     37542      5289  TIP3      H1            -28.4102954966        0.7298105589      -32.7588343292  TIP3      5097            0.0000000000
     37543      5289  TIP3      H2            -29.1603079118        1.9999811677      -32.3780034278  TIP3      5097            0.0000000000
     37544      5290  TIP3      OH2           -23.3234562254       17.0752188181      -34.9669248621  TIP3      5098            0.0000000000
     37545      5290  TIP3      H1            -22.8923394850       16.3578703141      -35.4746073160  TIP3      5098            0.0000000000
     37546      5290  TIP3      H2            -22.8985002485       17.8674889769      -35.3574660255  TIP3      5098            0.0000000000
     37547      5291  TIP3      OH2           -22.1144331172       15.0010108201      -36.4576462251  TIP3      5099            0.0000000000
     37548      5291  TIP3      H1            -22.4075907314       14.3067164015      -37.0729412809  TIP3      5099            0.0000000000
     37549      5291  TIP3      H2            -22.0808228463       14.5098078487      -35.6136004748  TIP3      5099            0.0000000000
     37550      5292  TIP3      OH2           -20.7083842202       13.8514960577      -28.0492233844  TIP3      5100            0.0000000000
     37551      5292  TIP3      H1            -20.3689019796       13.0467111200      -28.5173881258  TIP3      5100            0.0000000000
     37552      5292  TIP3      H2            -20.2194125880       14.5683167198      -28.4820206505  TIP3      5100            0.0000000000
     37553      5293  TIP3      OH2           -26.0053789406       10.4963522889      -38.2055520628  TIP3      5101            0.0000000000
     37554      5293  TIP3      H1            -26.6955313786       11.0723050047      -38.5938339174  TIP3      5101            0.0000000000
     37555      5293  TIP3      H2            -25.2930710959       10.5792669226      -38.8668007617  TIP3      5101            0.0000000000
     37556      5294  TIP3      OH2           -25.9586164014        9.0183523661      -41.1141154062  TIP3      5102            0.0000000000
     37557      5294  TIP3      H1            -25.2201049444        9.0223521424      -40.4845469712  TIP3      5102            0.0000000000
     37558      5294  TIP3      H2            -25.6315637377        8.3818488196      -41.7577470745  TIP3      5102            0.0000000000
     37559      5295  TIP3      OH2           -18.5855484501        9.7327471746      -30.1555687562  TIP3      5103            0.0000000000
     37560      5295  TIP3      H1            -19.1525100574       10.4952665855      -29.8169198670  TIP3      5103            0.0000000000
     37561      5295  TIP3      H2            -18.0803119402       10.2054533085      -30.8178023160  TIP3      5103            0.0000000000
     37562      5296  TIP3      OH2           -22.5606405286       10.7057254230      -37.2537481684  TIP3      5104            0.0000000000
     37563      5296  TIP3      H1            -23.3046714655       10.9450208966      -36.6516495553  TIP3      5104            0.0000000000
     37564      5296  TIP3      H2            -22.0863984355       10.0226867901      -36.7454569853  TIP3      5104            0.0000000000
     37565      5297  TIP3      OH2           -22.6656038667        8.8414839619      -28.1491857992  TIP3      5105            0.0000000000
     37566      5297  TIP3      H1            -22.5876103354        9.6694430335      -27.6367509118  TIP3      5105            0.0000000000
     37567      5297  TIP3      H2            -23.2469701470        9.1834377667      -28.8530333134  TIP3      5105            0.0000000000
     37568      5298  TIP3      OH2           -30.9208035416       11.3711622520      -35.3591804128  TIP3      5106            0.0000000000
     37569      5298  TIP3      H1            -31.2741909243       10.9665570327      -36.1864665848  TIP3      5106            0.0000000000
     37570      5298  TIP3      H2            -30.3215110174       10.6667383496      -35.0208940543  TIP3      5106            0.0000000000
     37571      5299  TIP3      OH2           -29.6130679964       14.7479715520      -32.6781246623  TIP3      5107            0.0000000000
     37572      5299  TIP3      H1            -29.6266200741       14.2121309643      -33.4804816724  TIP3      5107            0.0000000000
     37573      5299  TIP3      H2            -28.8336237252       14.3856997475      -32.2156075738  TIP3      5107            0.0000000000
     37574      5300  TIP3      OH2           -30.5803507570       10.1010760073      -31.6998456538  TIP3      5108            0.0000000000
     37575      5300  TIP3      H1            -30.0400294331       10.2167414674      -32.5023289826  TIP3      5108            0.0000000000
     37576      5300  TIP3      H2            -30.2232809701       10.7795182467      -31.0833777162  TIP3      5108            0.0000000000
     37577      5301  TIP3      OH2           -24.2096764056       15.6788342242      -30.9923044648  TIP3      5109            0.0000000000
     37578      5301  TIP3      H1            -24.4975150952       16.3194640722      -30.3343921228  TIP3      5109            0.0000000000
     37579      5301  TIP3      H2            -24.4558150745       14.8218374034      -30.5675862505  TIP3      5109            0.0000000000
     37580      5302  TIP3      OH2           -29.6815060981       14.5209510887      -26.9577431883  TIP3      5110            0.0000000000
     37581      5302  TIP3      H1            -30.0556070109       15.3202704942      -26.5370394097  TIP3      5110            0.0000000000
     37582      5302  TIP3      H2            -30.3237773479       14.3407958226      -27.6880785709  TIP3      5110            0.0000000000
     37583      5303  TIP3      OH2           -23.6757299792        9.8760992485      -39.5944683329  TIP3      5111            0.0000000000
     37584      5303  TIP3      H1            -23.1287211401       10.0773357645      -38.7967223622  TIP3      5111            0.0000000000
     37585      5303  TIP3      H2            -23.2684137912       10.4176989418      -40.2988043415  TIP3      5111            0.0000000000
     37586      5304  TIP3      OH2           -32.7267274538       10.7080431853      -27.8168899917  TIP3      5112            0.0000000000
     37587      5304  TIP3      H1            -32.6794351895       11.3842901164      -27.1235651570  TIP3      5112            0.0000000000
     37588      5304  TIP3      H2            -33.6628394754       10.7968950206      -28.0677054931  TIP3      5112            0.0000000000
     37589      5305  TIP3      OH2           -25.9714593374       16.6149706609      -36.1214305820  TIP3      5113            0.0000000000
     37590      5305  TIP3      H1            -25.5270183773       16.9314368522      -35.3276790711  TIP3      5113            0.0000000000
     37591      5305  TIP3      H2            -26.5214707783       17.3650821122      -36.3797879580  TIP3      5113            0.0000000000
     37592      5306  TIP3      OH2           -31.4277004484       16.5432137090      -26.2463290874  TIP3      5114            0.0000000000
     37593      5306  TIP3      H1            -31.4703165899       16.4789005321      -27.2196701812  TIP3      5114            0.0000000000
     37594      5306  TIP3      H2            -32.3677976563       16.4414419283      -26.0147064894  TIP3      5114            0.0000000000
     37595      5307  TIP3      OH2           -19.9812851380        1.6320244680      -39.7168796710  TIP3      5115            0.0000000000
     37596      5307  TIP3      H1            -20.9274618817        1.7460812009      -39.4595507200  TIP3      5115            0.0000000000
     37597      5307  TIP3      H2            -19.7366866250        2.4828786325      -40.1145064304  TIP3      5115            0.0000000000
     37598      5308  TIP3      OH2           -31.9432173516       10.3846154520      -37.7568708048  TIP3      5116            0.0000000000
     37599      5308  TIP3      H1            -32.2392925450       11.1586835969      -38.2729908214  TIP3      5116            0.0000000000
     37600      5308  TIP3      H2            -32.6110489309        9.7245321365      -37.9648018893  TIP3      5116            0.0000000000
     37601      5309  TIP3      OH2           -18.8545343660       15.9604950523      -41.3385796667  TIP3      5117            0.0000000000
     37602      5309  TIP3      H1            -18.7271344683       16.9192651370      -41.2149292246  TIP3      5117            0.0000000000
     37603      5309  TIP3      H2            -17.9231301229       15.6848180946      -41.4076941736  TIP3      5117            0.0000000000
     37604      5310  TIP3      OH2           -35.2995610477       12.6784073121      -29.1076197420  TIP3      5118            0.0000000000
     37605      5310  TIP3      H1            -36.0767363065       12.7912026012      -29.6945557327  TIP3      5118            0.0000000000
     37606      5310  TIP3      H2            -35.6779340534       11.8978125763      -28.6398574966  TIP3      5118            0.0000000000
     37607      5311  TIP3      OH2           -35.8338365032       15.7608873711      -32.3249851226  TIP3      5119            0.0000000000
     37608      5311  TIP3      H1            -34.9979276289       15.3809867304      -32.0510548225  TIP3      5119            0.0000000000
     37609      5311  TIP3      H2            -36.1133956913       16.2540523653      -31.5397862341  TIP3      5119            0.0000000000
     37610      5312  TIP3      OH2           -17.8713502445       16.2500317760      -26.4197381720  TIP3      5120            0.0000000000
     37611      5312  TIP3      H1            -17.9899366743       15.2816834400      -26.4182891081  TIP3      5120            0.0000000000
     37612      5312  TIP3      H2            -18.7273080193       16.4934519222      -25.9891504385  TIP3      5120            0.0000000000
     37613      5313  TIP3      OH2           -26.9177605691       15.7977207180      -27.5303141084  TIP3      5121            0.0000000000
     37614      5313  TIP3      H1            -26.8597257762       16.6301127358      -27.0046670633  TIP3      5121            0.0000000000
     37615      5313  TIP3      H2            -27.7863915041       15.4359297773      -27.2728180131  TIP3      5121            0.0000000000
     37616      5314  TIP3      OH2           -26.4969193065       19.5298574893      -37.7199397469  TIP3      5122            0.0000000000
     37617      5314  TIP3      H1            -26.5687674780       19.4668494186      -38.6886136682  TIP3      5122            0.0000000000
     37618      5314  TIP3      H2            -26.4590457373       20.4925912492      -37.5629650877  TIP3      5122            0.0000000000
     37619      5315  TIP3      OH2           -32.8836557441       18.4463943576      -35.8893947278  TIP3      5123            0.0000000000
     37620      5315  TIP3      H1            -32.6996660554       17.9928658204      -35.0344272496  TIP3      5123            0.0000000000
     37621      5315  TIP3      H2            -33.6753838350       17.9600196557      -36.1625547289  TIP3      5123            0.0000000000
     37622      5316  TIP3      OH2           -23.4578098846       18.7363809708      -40.7550554155  TIP3      5124            0.0000000000
     37623      5316  TIP3      H1            -22.9875986695       17.9769306201      -41.1696769536  TIP3      5124            0.0000000000
     37624      5316  TIP3      H2            -23.3853913757       18.4925096115      -39.8127647309  TIP3      5124            0.0000000000
     37625      5317  TIP3      OH2           -23.7389534429       18.6805943619      -37.9576467171  TIP3      5125            0.0000000000
     37626      5317  TIP3      H1            -24.6956222549       18.7482219441      -37.7720133920  TIP3      5125            0.0000000000
     37627      5317  TIP3      H2            -23.4873971103       17.9387589518      -37.3874945156  TIP3      5125            0.0000000000
     37628      5318  TIP3      OH2           -20.7533546434        7.6622680724      -25.9176551606  TIP3      5126            0.0000000000
     37629      5318  TIP3      H1            -21.1829965015        8.2006667073      -26.6102999310  TIP3      5126            0.0000000000
     37630      5318  TIP3      H2            -20.7214996423        6.7881742626      -26.3151019059  TIP3      5126            0.0000000000
     37631      5319  TIP3      OH2           -33.5857835187       14.1971911957      -27.8506706771  TIP3      5127            0.0000000000
     37632      5319  TIP3      H1            -33.3993213025       13.7469747923      -27.0128163275  TIP3      5127            0.0000000000
     37633      5319  TIP3      H2            -34.4174201959       13.7512195165      -28.1459791880  TIP3      5127            0.0000000000
     37634      5320  TIP3      OH2           -30.9067743983        2.6178471184      -31.9852341072  TIP3      5128            0.0000000000
     37635      5320  TIP3      H1            -31.8240569593        2.4836536388      -32.3073118061  TIP3      5128            0.0000000000
     37636      5320  TIP3      H2            -31.0384527970        3.4258503889      -31.4581982642  TIP3      5128            0.0000000000
     37637      5321  TIP3      OH2           -26.2858982713        2.2827745169      -28.5799902936  TIP3      5129            0.0000000000
     37638      5321  TIP3      H1            -25.8909987379        1.8726704829      -27.7909907268  TIP3      5129            0.0000000000
     37639      5321  TIP3      H2            -27.2548377457        2.1466226632      -28.4339379125  TIP3      5129            0.0000000000
     37640      5322  TIP3      OH2           -22.9702423115        6.1193551701      -27.7021992103  TIP3      5130            0.0000000000
     37641      5322  TIP3      H1            -23.5467822528        5.9138409359      -26.9267375470  TIP3      5130            0.0000000000
     37642      5322  TIP3      H2            -23.1334649770        7.0576361474      -27.9073301970  TIP3      5130            0.0000000000
     37643      5323  TIP3      OH2           -22.1557724903       10.9728381044      -41.7775925643  TIP3      5131            0.0000000000
     37644      5323  TIP3      H1            -22.1492119321       10.7927648966      -42.7352862665  TIP3      5131            0.0000000000
     37645      5323  TIP3      H2            -21.2878319068       11.4021990502      -41.6724277872  TIP3      5131            0.0000000000
     37646      5324  TIP3      OH2           -26.6235646156        4.8391378461      -41.2559056222  TIP3      5132            0.0000000000
     37647      5324  TIP3      H1            -26.9253873455        4.8027148306      -40.3350807237  TIP3      5132            0.0000000000
     37648      5324  TIP3      H2            -26.9053929227        3.9597426275      -41.5370039501  TIP3      5132            0.0000000000
     37649      5325  TIP3      OH2           -30.8353451712        7.5626244585      -30.7271857952  TIP3      5133            0.0000000000
     37650      5325  TIP3      H1            -31.5451137199        7.5594155093      -30.0579974492  TIP3      5133            0.0000000000
     37651      5325  TIP3      H2            -30.8460446165        8.4864520742      -31.0642156527  TIP3      5133            0.0000000000
     37652      5326  TIP3      OH2           -30.8376535131        7.6724929625      -35.8336604410  TIP3      5134            0.0000000000
     37653      5326  TIP3      H1            -31.7814911799        7.4560111879      -35.9823680941  TIP3      5134            0.0000000000
     37654      5326  TIP3      H2            -30.4576005766        7.4117688092      -36.6930958799  TIP3      5134            0.0000000000
     37655      5327  TIP3      OH2           -25.3324900414        8.1786921209      -37.0912988113  TIP3      5135            0.0000000000
     37656      5327  TIP3      H1            -25.7374209351        9.0164641869      -37.4105341565  TIP3      5135            0.0000000000
     37657      5327  TIP3      H2            -24.6378187538        8.0320918696      -37.7607347040  TIP3      5135            0.0000000000
     37658      5328  TIP3      OH2           -26.2525159892        8.3966506356      -25.6288407627  TIP3      5136            0.0000000000
     37659      5328  TIP3      H1            -26.8004792443        7.6422090495      -25.3192762066  TIP3      5136            0.0000000000
     37660      5328  TIP3      H2            -25.4300020353        8.2758104006      -25.1288112572  TIP3      5136            0.0000000000
     37661      5329  TIP3      OH2           -24.3012610935        7.6756257567      -34.2216023123  TIP3      5137            0.0000000000
     37662      5329  TIP3      H1            -24.5749356559        8.2412955949      -34.9644198060  TIP3      5137            0.0000000000
     37663      5329  TIP3      H2            -24.1984323878        6.8280755132      -34.6945747221  TIP3      5137            0.0000000000
     37664      5330  TIP3      OH2           -33.1720010967        7.8190556008      -29.0056393624  TIP3      5138            0.0000000000
     37665      5330  TIP3      H1            -33.1514612701        8.2264153896      -28.1246394223  TIP3      5138            0.0000000000
     37666      5330  TIP3      H2            -33.6611194509        7.0051017160      -28.8203039977  TIP3      5138            0.0000000000
     37667      5331  TIP3      OH2           -29.6543526314        5.4288485986      -41.8288420818  TIP3      5139            0.0000000000
     37668      5331  TIP3      H1            -30.2039231498        4.7983073313      -41.3429520096  TIP3      5139            0.0000000000
     37669      5331  TIP3      H2            -30.2530338484        5.7956421799      -42.4841545917  TIP3      5139            0.0000000000
     37670      5332  TIP3      OH2           -36.1824663164        5.2449793366      -35.2186600760  TIP3      5140            0.0000000000
     37671      5332  TIP3      H1            -35.8319074214        4.9036345285      -34.3684412857  TIP3      5140            0.0000000000
     37672      5332  TIP3      H2            -36.0470500794        4.5002836170      -35.8000041293  TIP3      5140            0.0000000000
     37673      5333  TIP3      OH2           -35.2446026765        5.7784323043      -39.6789548355  TIP3      5141            0.0000000000
     37674      5333  TIP3      H1            -34.7203127703        6.3256579511      -40.3018833987  TIP3      5141            0.0000000000
     37675      5333  TIP3      H2            -35.9702775364        6.3358219481      -39.4280652572  TIP3      5141            0.0000000000
     37676      5334  TIP3      OH2           -25.1326529163        9.2665204896      -29.6740645293  TIP3      5142            0.0000000000
     37677      5334  TIP3      H1            -24.7275697443        8.5853433638      -30.2494997742  TIP3      5142            0.0000000000
     37678      5334  TIP3      H2            -25.5644715894        8.7296937984      -28.9882033367  TIP3      5142            0.0000000000
     37679      5335  TIP3      OH2           -28.3202994802        5.1956860983      -34.8345467340  TIP3      5143            0.0000000000
     37680      5335  TIP3      H1            -29.2405972431        5.2705264913      -34.5087491829  TIP3      5143            0.0000000000
     37681      5335  TIP3      H2            -27.8087514740        5.0965993878      -34.0144148178  TIP3      5143            0.0000000000
     37682      5336  TIP3      OH2           -33.4716140303        6.7811308035      -35.9686399818  TIP3      5144            0.0000000000
     37683      5336  TIP3      H1            -34.3524262215        6.9655771082      -36.3524144592  TIP3      5144            0.0000000000
     37684      5336  TIP3      H2            -33.2307739211        5.9375510620      -36.3801609793  TIP3      5144            0.0000000000
     37685      5337  TIP3      OH2           -29.8510100207        6.8356451362      -38.3356786934  TIP3      5145            0.0000000000
     37686      5337  TIP3      H1            -28.8958892999        6.9695961505      -38.1648352469  TIP3      5145            0.0000000000
     37687      5337  TIP3      H2            -30.0944574983        7.5112423342      -39.0021794824  TIP3      5145            0.0000000000
     37688      5338  TIP3      OH2           -23.8947962272        4.4738447871      -31.5841874093  TIP3      5146            0.0000000000
     37689      5338  TIP3      H1            -24.5808575825        4.5355572318      -30.8823794005  TIP3      5146            0.0000000000
     37690      5338  TIP3      H2            -24.4003718656        4.2320629755      -32.3724501625  TIP3      5146            0.0000000000
     37691      5339  TIP3      OH2           -31.1340794014        8.0059631595      -40.7441796691  TIP3      5147            0.0000000000
     37692      5339  TIP3      H1            -31.6916231830        7.6693185545      -41.4628160086  TIP3      5147            0.0000000000
     37693      5339  TIP3      H2            -30.3152849714        8.2297824914      -41.2088974166  TIP3      5147            0.0000000000
     37694      5340  TIP3      OH2           -20.7062567345       20.1504908670      -25.2516251134  TIP3      5148            0.0000000000
     37695      5340  TIP3      H1            -20.3914857033       20.5181342565      -26.0955938465  TIP3      5148            0.0000000000
     37696      5340  TIP3      H2            -19.9544537233       20.4069653159      -24.6833273735  TIP3      5148            0.0000000000
     37697      5341  TIP3      OH2           -33.0346457437       12.5412416841      -25.6649105502  TIP3      5149            0.0000000000
     37698      5341  TIP3      H1            -32.2921689411       12.8932364659      -25.1622879885  TIP3      5149            0.0000000000
     37699      5341  TIP3      H2            -33.8319808489       12.7575070558      -25.1411939396  TIP3      5149            0.0000000000
     37700      5342  TIP3      OH2           -27.0214722052        7.9942266982      -32.9398903455  TIP3      5150            0.0000000000
     37701      5342  TIP3      H1            -26.4163993360        7.4631931246      -33.4710500428  TIP3      5150            0.0000000000
     37702      5342  TIP3      H2            -27.1584149373        7.4506098847      -32.1523048959  TIP3      5150            0.0000000000
     37703      5343  TIP3      OH2           -32.0399596202        4.2039485363      -36.4611850883  TIP3      5151            0.0000000000
     37704      5343  TIP3      H1            -32.4590953051        3.3227114916      -36.4636839289  TIP3      5151            0.0000000000
     37705      5343  TIP3      H2            -31.2958901240        4.2582302527      -37.0686059777  TIP3      5151            0.0000000000
     37706      5344  TIP3      OH2           -28.3738826194        6.3333747531      -30.5293741966  TIP3      5152            0.0000000000
     37707      5344  TIP3      H1            -29.2026688534        6.8402814604      -30.4254468935  TIP3      5152            0.0000000000
     37708      5344  TIP3      H2            -27.8269902768        6.6734035816      -29.7923781829  TIP3      5152            0.0000000000
     37709      5345  TIP3      OH2           -27.7813244011       12.5361862582      -38.8058206382  TIP3      5153            0.0000000000
     37710      5345  TIP3      H1            -28.5825874551       12.0794504722      -39.1453031170  TIP3      5153            0.0000000000
     37711      5345  TIP3      H2            -28.0054698191       12.6537371988      -37.8632130252  TIP3      5153            0.0000000000
     37712      5346  TIP3      OH2           -20.6933060564       11.5368283542      -30.6120253856  TIP3      5154            0.0000000000
     37713      5346  TIP3      H1            -20.0809812446       12.2872663492      -30.6855929370  TIP3      5154            0.0000000000
     37714      5346  TIP3      H2            -21.5771444807       11.9250152756      -30.6198550781  TIP3      5154            0.0000000000
     37715      5347  TIP3      OH2           -23.9177040903        5.3472403554      -40.6389320786  TIP3      5155            0.0000000000
     37716      5347  TIP3      H1            -24.8634174669        5.5020649716      -40.8108453085  TIP3      5155            0.0000000000
     37717      5347  TIP3      H2            -23.6199327120        6.2211800439      -40.3284783645  TIP3      5155            0.0000000000
     37718      5348  TIP3      OH2           -26.2843983914       12.8206973317      -27.6054179306  TIP3      5156            0.0000000000
     37719      5348  TIP3      H1            -26.6424214052       12.3944519748      -26.8154980897  TIP3      5156            0.0000000000
     37720      5348  TIP3      H2            -26.5351918974       13.7426230975      -27.4878462004  TIP3      5156            0.0000000000
     37721      5349  TIP3      OH2           -23.2146941588        7.2842441338      -38.9744989122  TIP3      5157            0.0000000000
     37722      5349  TIP3      H1            -22.3174927110        7.1457239295      -38.6149125487  TIP3      5157            0.0000000000
     37723      5349  TIP3      H2            -23.1297783051        8.0907268430      -39.5047147856  TIP3      5157            0.0000000000
     37724      5350  TIP3      OH2           -32.6875576723       11.9380324444      -33.0403001354  TIP3      5158            0.0000000000
     37725      5350  TIP3      H1            -31.9962518567       11.8639334250      -33.7178452432  TIP3      5158            0.0000000000
     37726      5350  TIP3      H2            -32.5924471546       11.0962530054      -32.5627133652  TIP3      5158            0.0000000000
     37727      5351  TIP3      OH2           -25.6866636742       14.0192627045      -39.7656044511  TIP3      5159            0.0000000000
     37728      5351  TIP3      H1            -26.0520071183       14.8631591052      -39.4294301932  TIP3      5159            0.0000000000
     37729      5351  TIP3      H2            -26.4254201190       13.3949455859      -39.5890586941  TIP3      5159            0.0000000000
     37730      5352  TIP3      OH2           -35.7016795313       10.3269664869      -27.7518590869  TIP3      5160            0.0000000000
     37731      5352  TIP3      H1            -35.4586019341        9.8822786888      -26.9211014300  TIP3      5160            0.0000000000
     37732      5352  TIP3      H2            -36.2948810948        9.6940850879      -28.1794171585  TIP3      5160            0.0000000000
     37733      5353  TIP3      OH2           -28.6916712022        9.9104772097      -25.5674358043  TIP3      5161            0.0000000000
     37734      5353  TIP3      H1            -28.9895714991        9.6125061075      -26.4438974864  TIP3      5161            0.0000000000
     37735      5353  TIP3      H2            -27.7592964487        9.6050176862      -25.5738491783  TIP3      5161            0.0000000000
     37736      5354  TIP3      OH2           -24.0101325880       15.2543225221      -27.6446182637  TIP3      5162            0.0000000000
     37737      5354  TIP3      H1            -24.9362100783       15.4271784286      -27.8767891864  TIP3      5162            0.0000000000
     37738      5354  TIP3      H2            -24.0290110097       15.5363666617      -26.7103550791  TIP3      5162            0.0000000000
     37739      5355  TIP3      OH2           -18.3293897365        7.4247780804      -39.2248270585  TIP3      5163            0.0000000000
     37740      5355  TIP3      H1            -18.8848314197        7.1092826071      -39.9597283823  TIP3      5163            0.0000000000
     37741      5355  TIP3      H2            -18.2626384940        8.3636881213      -39.4995647435  TIP3      5163            0.0000000000
     37742      5356  TIP3      OH2           -18.2954894463       13.4243893539      -26.4107189872  TIP3      5164            0.0000000000
     37743      5356  TIP3      H1            -19.2060065500       13.4429396262      -26.7854384467  TIP3      5164            0.0000000000
     37744      5356  TIP3      H2            -17.7985405276       13.1940767494      -27.2120552515  TIP3      5164            0.0000000000
     37745      5357  TIP3      OH2           -20.0244489468       16.2505257168      -38.8496350817  TIP3      5165            0.0000000000
     37746      5357  TIP3      H1            -20.3978003705       15.4233089336      -38.5180577609  TIP3      5165            0.0000000000
     37747      5357  TIP3      H2            -19.7283001513       16.0520114727      -39.7583348911  TIP3      5165            0.0000000000
     37748      5358  TIP3      OH2           -22.9100328194       11.0991539460      -31.8340656337  TIP3      5166            0.0000000000
     37749      5358  TIP3      H1            -23.8200674256       10.8100334268      -31.8541416940  TIP3      5166            0.0000000000
     37750      5358  TIP3      H2            -22.3939409028       10.3228090581      -32.1379802189  TIP3      5166            0.0000000000
     37751      5359  TIP3      OH2           -30.3169952099       15.4002567924      -35.6318921954  TIP3      5167            0.0000000000
     37752      5359  TIP3      H1            -29.8076751363       16.1986305224      -35.8479994855  TIP3      5167            0.0000000000
     37753      5359  TIP3      H2            -31.1945927932       15.6309931333      -35.9642964892  TIP3      5167            0.0000000000
     37754      5360  TIP3      OH2           -34.6401952699       10.2225590669      -41.0606751031  TIP3      5168            0.0000000000
     37755      5360  TIP3      H1            -33.9594012037       10.8496028959      -40.7338343938  TIP3      5168            0.0000000000
     37756      5360  TIP3      H2            -35.4610890822       10.5948427938      -40.7407978886  TIP3      5168            0.0000000000
     37757      5361  TIP3      OH2           -28.8838350313       13.0596191758      -36.1145894705  TIP3      5169            0.0000000000
     37758      5361  TIP3      H1            -29.1943924684       13.9821121129      -36.0380585651  TIP3      5169            0.0000000000
     37759      5361  TIP3      H2            -29.6132382921       12.5747230104      -35.6780798516  TIP3      5169            0.0000000000
     37760      5362  TIP3      OH2           -28.4280529012       17.2412188784      -29.7217260823  TIP3      5170            0.0000000000
     37761      5362  TIP3      H1            -27.9856426353       18.0574829387      -30.0016339433  TIP3      5170            0.0000000000
     37762      5362  TIP3      H2            -27.8202382884       16.9095620564      -29.0366888485  TIP3      5170            0.0000000000
     37763      5363  TIP3      OH2           -30.2156165587       18.0624913848      -36.5961590228  TIP3      5171            0.0000000000
     37764      5363  TIP3      H1            -31.1793071035       18.1998686812      -36.4592828340  TIP3      5171            0.0000000000
     37765      5363  TIP3      H2            -29.8527190041       18.8938478811      -36.2369882871  TIP3      5171            0.0000000000
     37766      5364  TIP3      OH2           -24.9241909767       13.2425244704      -30.1039142988  TIP3      5172            0.0000000000
     37767      5364  TIP3      H1            -25.2287530290       13.0555942908      -29.1928692322  TIP3      5172            0.0000000000
     37768      5364  TIP3      H2            -24.2591632551       12.5503137101      -30.2560808006  TIP3      5172            0.0000000000
     37769      5365  TIP3      OH2           -22.6228324098       14.2714617532      -40.9765038398  TIP3      5173            0.0000000000
     37770      5365  TIP3      H1            -22.3157325750       13.8343807063      -40.1577566682  TIP3      5173            0.0000000000
     37771      5365  TIP3      H2            -23.5797428779       14.1261138419      -40.9052844512  TIP3      5173            0.0000000000
     37772      5366  TIP3      OH2           -22.1327989211       17.8420134010      -27.6025467625  TIP3      5174            0.0000000000
     37773      5366  TIP3      H1            -22.7953621678       17.3331732982      -28.1057273873  TIP3      5174            0.0000000000
     37774      5366  TIP3      H2            -21.9070376616       18.5284572983      -28.2630293791  TIP3      5174            0.0000000000
     37775      5367  TIP3      OH2           -18.1017073153       18.6983017943      -40.7500287614  TIP3      5175            0.0000000000
     37776      5367  TIP3      H1            -17.4074785863       19.3353699466      -40.9927401051  TIP3      5175            0.0000000000
     37777      5367  TIP3      H2            -18.8232944013       19.2985740298      -40.4567149127  TIP3      5175            0.0000000000
     37778      5368  TIP3      OH2           -34.0458222569        5.0768632785      -28.2584409605  TIP3      5176            0.0000000000
     37779      5368  TIP3      H1            -34.9289936930        5.4638018158      -28.1856259646  TIP3      5176            0.0000000000
     37780      5368  TIP3      H2            -34.1579986249        4.2456258286      -27.7798312948  TIP3      5176            0.0000000000
     37781      5369  TIP3      OH2           -21.7930551539       12.9411614162      -38.7589216249  TIP3      5177            0.0000000000
     37782      5369  TIP3      H1            -22.0379978698       12.1447497467      -38.2422447917  TIP3      5177            0.0000000000
     37783      5369  TIP3      H2            -20.8464191040       13.0095762542      -38.5528454223  TIP3      5177            0.0000000000
     37784      5370  TIP3      OH2           -34.2655134875       16.9321453809      -29.8210028014  TIP3      5178            0.0000000000
     37785      5370  TIP3      H1            -34.1480044972       15.9689660940      -29.7756277825  TIP3      5178            0.0000000000
     37786      5370  TIP3      H2            -34.1665332681       17.1588275852      -28.8928024482  TIP3      5178            0.0000000000
     37787      5371  TIP3      OH2           -29.6726855563       14.9517218267      -40.0785623854  TIP3      5179            0.0000000000
     37788      5371  TIP3      H1            -29.4192113963       14.3931235516      -39.3323230942  TIP3      5179            0.0000000000
     37789      5371  TIP3      H2            -29.5925453948       15.8625698793      -39.7349133000  TIP3      5179            0.0000000000
     37790      5372  TIP3      OH2           -33.2039581443       12.1788993049      -39.6080744888  TIP3      5180            0.0000000000
     37791      5372  TIP3      H1            -33.8810500896       12.5726850048      -39.0116444968  TIP3      5180            0.0000000000
     37792      5372  TIP3      H2            -32.6441939852       12.9418659706      -39.8340501521  TIP3      5180            0.0000000000
     37793      5373  TIP3      OH2           -25.3042011134        4.8493939796      -29.2781382923  TIP3      5181            0.0000000000
     37794      5373  TIP3      H1            -24.6064083527        4.9189892865      -28.6168882304  TIP3      5181            0.0000000000
     37795      5373  TIP3      H2            -25.6929644726        3.9789228726      -29.0643210818  TIP3      5181            0.0000000000
     37796      5374  TIP3      OH2           -24.5662617749        4.4411471710      -38.1570539459  TIP3      5182            0.0000000000
     37797      5374  TIP3      H1            -24.3159802269        4.9031699620      -38.9843411211  TIP3      5182            0.0000000000
     37798      5374  TIP3      H2            -23.9792709897        4.8710220985      -37.5243914275  TIP3      5182            0.0000000000
     37799      5375  TIP3      OH2           -26.8749985545       16.5999168179      -39.3397784255  TIP3      5183            0.0000000000
     37800      5375  TIP3      H1            -27.6932893557       17.1204228884      -39.2835723065  TIP3      5183            0.0000000000
     37801      5375  TIP3      H2            -26.3324260295       17.0977898564      -39.9754967283  TIP3      5183            0.0000000000
     37802      5376  TIP3      OH2           -27.3460117770        6.1553291814      -37.3540363885  TIP3      5184            0.0000000000
     37803      5376  TIP3      H1            -26.5621690615        6.7423053050      -37.3366240646  TIP3      5184            0.0000000000
     37804      5376  TIP3      H2            -27.5886603999        6.0663602663      -36.4178764215  TIP3      5184            0.0000000000
     37805      5377  TIP3      OH2           -26.7746942952        7.1979646759      -28.2018524581  TIP3      5185            0.0000000000
     37806      5377  TIP3      H1            -26.6863377566        7.7882250777      -27.4273351783  TIP3      5185            0.0000000000
     37807      5377  TIP3      H2            -26.1194439033        6.5052716061      -28.0634036536  TIP3      5185            0.0000000000
     37808      5378  TIP3      OH2           -26.4982567671        3.2393456237      -36.4847330484  TIP3      5186            0.0000000000
     37809      5378  TIP3      H1            -26.7792798176        3.8831028850      -35.8083325565  TIP3      5186            0.0000000000
     37810      5378  TIP3      H2            -25.7795895474        3.7765461891      -36.9107653956  TIP3      5186            0.0000000000
     37811      5379  TIP3      OH2           -29.5049619433       17.6362310660      -39.3267112963  TIP3      5187            0.0000000000
     37812      5379  TIP3      H1            -29.3287767869       18.4566414721      -39.8326722317  TIP3      5187            0.0000000000
     37813      5379  TIP3      H2            -29.7435375895       17.9788953620      -38.4362411397  TIP3      5187            0.0000000000
     37814      5380  TIP3      OH2           -30.8196934932        4.2896606499      -39.6342828037  TIP3      5188            0.0000000000
     37815      5380  TIP3      H1            -30.8792578103        5.2465487108      -39.4139013710  TIP3      5188            0.0000000000
     37816      5380  TIP3      H2            -29.8603566445        4.1417110204      -39.5000086165  TIP3      5188            0.0000000000
     37817      5381  TIP3      OH2           -20.5977479216        5.0935365310      -27.2826737167  TIP3      5189            0.0000000000
     37818      5381  TIP3      H1            -21.5345014632        5.3637124725      -27.4571362592  TIP3      5189            0.0000000000
     37819      5381  TIP3      H2            -20.2856195332        5.0618720359      -28.2041320533  TIP3      5189            0.0000000000
     37820      5382  TIP3      OH2           -21.9820499170        8.8560422683      -33.3046660828  TIP3      5190            0.0000000000
     37821      5382  TIP3      H1            -22.8073159444        8.4139247429      -33.5776032515  TIP3      5190            0.0000000000
     37822      5382  TIP3      H2            -21.5058065187        8.1822450855      -32.7691017416  TIP3      5190            0.0000000000
     37823      5383  TIP3      OH2           -32.5990809839       14.8085946340      -40.7169976405  TIP3      5191            0.0000000000
     37824      5383  TIP3      H1            -31.9301504132       15.4239901813      -40.3968756895  TIP3      5191            0.0000000000
     37825      5383  TIP3      H2            -32.0732666820       14.3150485991      -41.3800896205  TIP3      5191            0.0000000000
     37826      5384  TIP3      OH2           -34.2144366196        7.4655271237      -41.4787742682  TIP3      5192            0.0000000000
     37827      5384  TIP3      H1            -34.2078646282        8.4305363666      -41.3960478752  TIP3      5192            0.0000000000
     37828      5384  TIP3      H2            -35.0548418043        7.2378588575      -41.8881614490  TIP3      5192            0.0000000000
     37829      5385  TIP3      OH2           -20.9220908377       18.1122843956      -31.6323264741  TIP3      5193            0.0000000000
     37830      5385  TIP3      H1            -21.0179798977       18.7977452051      -32.3214182847  TIP3      5193            0.0000000000
     37831      5385  TIP3      H2            -19.9594957685       18.1779477303      -31.4534872153  TIP3      5193            0.0000000000
     37832      5386  TIP3      OH2           -33.3832038633        2.2125752885      -32.8572481473  TIP3      5194            0.0000000000
     37833      5386  TIP3      H1            -33.6471756921        2.2631158465      -33.7960112630  TIP3      5194            0.0000000000
     37834      5386  TIP3      H2            -33.8411463070        1.3996452526      -32.5664773441  TIP3      5194            0.0000000000
     37835      5387  TIP3      OH2           -34.4487270322       16.1985543045      -36.6486837426  TIP3      5195            0.0000000000
     37836      5387  TIP3      H1            -35.3215635733       16.5892964456      -36.7389453830  TIP3      5195            0.0000000000
     37837      5387  TIP3      H2            -33.9803413308       16.6192603351      -37.3854630346  TIP3      5195            0.0000000000
     37838      5388  TIP3      OH2           -34.9711013229       18.8595179668      -25.3707442482  TIP3      5196            0.0000000000
     37839      5388  TIP3      H1            -34.5669289139       18.5223101016      -24.5771367114  TIP3      5196            0.0000000000
     37840      5388  TIP3      H2            -35.4898340510       18.0541338852      -25.6085376551  TIP3      5196            0.0000000000
     37841      5389  TIP3      OH2           -30.6147599581       17.6985080701      -23.7883687913  TIP3      5197            0.0000000000
     37842      5389  TIP3      H1            -29.8276499567       17.2643101818      -23.4471790535  TIP3      5197            0.0000000000
     37843      5389  TIP3      H2            -30.6044049794       17.4591620320      -24.7253401476  TIP3      5197            0.0000000000
     37844      5390  TIP3      OH2           -26.0988373749       17.3009025391      -41.8207547071  TIP3      5198            0.0000000000
     37845      5390  TIP3      H1            -26.9356786011       16.8095572588      -41.9144786686  TIP3      5198            0.0000000000
     37846      5390  TIP3      H2            -25.6038961847       16.8368237768      -42.4983591773  TIP3      5198            0.0000000000
     37847      5391  TIP3      OH2           -24.0590177678       16.1199080036      -25.0326374886  TIP3      5199            0.0000000000
     37848      5391  TIP3      H1            -24.3797733446       15.2255010236      -24.7821072276  TIP3      5199            0.0000000000
     37849      5391  TIP3      H2            -23.2755388994       16.1868320674      -24.4724676748  TIP3      5199            0.0000000000
     37850      5392  TIP3      OH2           -21.8838300373       17.0203273680      -42.1907180741  TIP3      5200            0.0000000000
     37851      5392  TIP3      H1            -21.6294226413       16.2091839327      -41.7110361959  TIP3      5200            0.0000000000
     37852      5392  TIP3      H2            -21.1077125991       17.2226954016      -42.7260002518  TIP3      5200            0.0000000000
     37853      5393  TIP3      OH2           -35.3325167522       12.5879149611      -24.4302683963  TIP3      5201            0.0000000000
     37854      5393  TIP3      H1            -35.1860542153       11.6810758651      -24.7664531812  TIP3      5201            0.0000000000
     37855      5393  TIP3      H2            -36.0867558862       12.8588910645      -24.9739838338  TIP3      5201            0.0000000000
     37856      5394  TIP3      OH2           -30.9206977207       13.0030252978      -42.2433194113  TIP3      5202            0.0000000000
     37857      5394  TIP3      H1            -30.8721695090       12.1644553634      -41.7772764278  TIP3      5202            0.0000000000
     37858      5394  TIP3      H2            -30.3585753172       12.7727204948      -43.0072799813  TIP3      5202            0.0000000000
     37859      5395  TIP3      OH2           -28.6190605235       12.5611281299      -24.9861436435  TIP3      5203            0.0000000000
     37860      5395  TIP3      H1            -28.9629897934       12.8849311663      -25.8435043848  TIP3      5203            0.0000000000
     37861      5395  TIP3      H2            -28.5572731597       11.5908961480      -25.1400753980  TIP3      5203            0.0000000000
     37862      5396  TIP3      OH2           -22.9793567244       12.4310210948      -27.6649643054  TIP3      5204            0.0000000000
     37863      5396  TIP3      H1            -22.1648779971       12.9955139356      -27.7015299461  TIP3      5204            0.0000000000
     37864      5396  TIP3      H2            -23.6383585957       13.1196811072      -27.5608577845  TIP3      5204            0.0000000000
     37865      5397  TIP3      OH2           -34.4889191819        9.8255112330      -25.0213645669  TIP3      5205            0.0000000000
     37866      5397  TIP3      H1            -34.0622681444        8.9585550114      -25.1614527005  TIP3      5205            0.0000000000
     37867      5397  TIP3      H2            -34.7108231644        9.7671967811      -24.0835414002  TIP3      5205            0.0000000000
     37868      5398  TIP3      OH2           -29.7954381259       10.9691251362      -39.9692891978  TIP3      5206            0.0000000000
     37869      5398  TIP3      H1            -30.2950934162       10.4350375936      -39.3295161781  TIP3      5206            0.0000000000
     37870      5398  TIP3      H2            -29.4929851119       10.2730892154      -40.6005481603  TIP3      5206            0.0000000000
     37871      5399  TIP3      OH2           -30.5368340870        8.7653028088      -27.6519343515  TIP3      5207            0.0000000000
     37872      5399  TIP3      H1            -31.1446967892        9.4736088218      -27.3891823031  TIP3      5207            0.0000000000
     37873      5399  TIP3      H2            -30.1554326744        9.1233500855      -28.4749722544  TIP3      5207            0.0000000000
     37874      5400  TIP3      OH2           -28.7361880032        9.1915915334      -41.7563833466  TIP3      5208            0.0000000000
     37875      5400  TIP3      H1            -28.8488017832        8.9868148488      -42.6930372533  TIP3      5208            0.0000000000
     37876      5400  TIP3      H2            -27.7550974666        9.2654335666      -41.6588409224  TIP3      5208            0.0000000000
     37877      5401  TIP3      OH2           -25.4830448091       11.3658194004      -24.2820444680  TIP3      5209            0.0000000000
     37878      5401  TIP3      H1            -24.5249940204       11.3168224463      -24.4566459555  TIP3      5209            0.0000000000
     37879      5401  TIP3      H2            -25.6462381112       10.5533658715      -23.7923405306  TIP3      5209            0.0000000000
     37880      5402  TIP3      OH2           -19.5266135121       11.6134947701       42.7482598503  TIP3      5210            0.0000000000
     37881      5402  TIP3      H1            -19.6440814915       11.1240631398       41.9190644957  TIP3      5210            0.0000000000
     37882      5402  TIP3      H2            -19.3172798672       12.5185219537       42.4821164855  TIP3      5210            0.0000000000
     37883      5403  TIP3      OH2           -30.0598719449        6.1311201485      -26.5851706666  TIP3      5211            0.0000000000
     37884      5403  TIP3      H1            -30.0334835653        5.4286455757      -27.2576927281  TIP3      5211            0.0000000000
     37885      5403  TIP3      H2            -30.2160454331        6.9422055491      -27.1133101886  TIP3      5211            0.0000000000
     37886      5404  TIP3      OH2           -29.7324061074        4.5147161339      -29.0442008466  TIP3      5212            0.0000000000
     37887      5404  TIP3      H1            -29.2183899504        4.9811505393      -29.7441428467  TIP3      5212            0.0000000000
     37888      5404  TIP3      H2            -30.6206427087        4.4372163377      -29.4606797721  TIP3      5212            0.0000000000
     37889      5405  TIP3      OH2           -28.1859484499        9.9886781671      -28.8267922093  TIP3      5213            0.0000000000
     37890      5405  TIP3      H1            -27.4250704392        9.8401876194      -29.3956694314  TIP3      5213            0.0000000000
     37891      5405  TIP3      H2            -28.5424759191       10.8389462309      -29.1268288367  TIP3      5213            0.0000000000
     37892      5406  TIP3      OH2           -23.8170572006        7.7638468957      -23.8909207680  TIP3      5214            0.0000000000
     37893      5406  TIP3      H1            -23.5610752109        6.8347376081      -23.8793536808  TIP3      5214            0.0000000000
     37894      5406  TIP3      H2            -22.9591266798        8.2258024543      -23.8529425796  TIP3      5214            0.0000000000
     37895      5407  TIP3      OH2           -22.4692773176       10.5362947073      -25.7314848408  TIP3      5215            0.0000000000
     37896      5407  TIP3      H1            -22.6780820966       11.2877829446      -26.3213096271  TIP3      5215            0.0000000000
     37897      5407  TIP3      H2            -21.4995296959       10.5512409041      -25.8226257522  TIP3      5215            0.0000000000
     37898      5408  TIP3      OH2           -28.9506857335        1.9447356390      -28.6494450394  TIP3      5216            0.0000000000
     37899      5408  TIP3      H1            -29.1163913382        2.9107310007      -28.7614760655  TIP3      5216            0.0000000000
     37900      5408  TIP3      H2            -29.6947380161        1.5837583249      -29.1611130078  TIP3      5216            0.0000000000
     37901      5409  TIP3      OH2           -27.6818582105        6.2715070364      -25.1055947317  TIP3      5217            0.0000000000
     37902      5409  TIP3      H1            -27.9159037804        6.0060040894      -24.2022081624  TIP3      5217            0.0000000000
     37903      5409  TIP3      H2            -28.4980089295        6.1009621760      -25.6250889800  TIP3      5217            0.0000000000
     37904      5410  TIP3      OH2           -24.9617625307        5.3865907968      -26.0378876774  TIP3      5218            0.0000000000
     37905      5410  TIP3      H1            -25.9181273143        5.4641433461      -25.8551454437  TIP3      5218            0.0000000000
     37906      5410  TIP3      H2            -24.6573518018        4.8020120397      -25.3108627559  TIP3      5218            0.0000000000
     37907      5411  TIP3      OH2           -23.3998948479        4.0668597624      -24.0197925112  TIP3      5219            0.0000000000
     37908      5411  TIP3      H1            -23.4559953958        3.0838567743      -24.0168690530  TIP3      5219            0.0000000000
     37909      5411  TIP3      H2            -23.6948006650        4.2707946202      -23.1187227761  TIP3      5219            0.0000000000
     37910      5412  TIP3      OH2           -33.4670944273        5.2629500160      -24.8963963497  TIP3      5220            0.0000000000
     37911      5412  TIP3      H1            -33.3328469982        4.5700188053      -25.5632803734  TIP3      5220            0.0000000000
     37912      5412  TIP3      H2            -33.6372777711        4.8343052889      -24.0580566452  TIP3      5220            0.0000000000
     37913      5413  TIP3      OH2           -28.7313394766        1.3249686827      -25.9704893116  TIP3      5221            0.0000000000
     37914      5413  TIP3      H1            -28.0494805273        0.6261820284      -25.9670911703  TIP3      5221            0.0000000000
     37915      5413  TIP3      H2            -28.8354862328        1.4824089446      -26.9269282248  TIP3      5221            0.0000000000
     37916      5414  TIP3      OH2           -28.3743821362        3.0114231928      -23.9231484566  TIP3      5222            0.0000000000
     37917      5414  TIP3      H1            -28.5205194312        2.4415992415      -24.7061227658  TIP3      5222            0.0000000000
     37918      5414  TIP3      H2            -29.0131251677        3.7058966889      -24.0047770152  TIP3      5222            0.0000000000
     37919      5415  TIP3      OH2           -28.8906873022       19.8597360912      -40.7534384064  TIP3      5223            0.0000000000
     37920      5415  TIP3      H1            -27.9213640119       19.9700410161      -40.6109592604  TIP3      5223            0.0000000000
     37921      5415  TIP3      H2            -29.0683193181       20.5420898065      -41.3985302365  TIP3      5223            0.0000000000
     37922      5416  TIP3      OH2           -35.2804970768       14.4505399393      -41.2149844140  TIP3      5224            0.0000000000
     37923      5416  TIP3      H1            -34.3259950125       14.5592229796      -40.9967404030  TIP3      5224            0.0000000000
     37924      5416  TIP3      H2            -35.2728798313       13.8585575175      -41.9706086250  TIP3      5224            0.0000000000
     37925      5417  TIP3      OH2            36.8989896888       19.5774712382      -36.7139336417  TIP3      5225            0.0000000000
     37926      5417  TIP3      H1             35.9243104132       19.5147600797      -36.8953538088  TIP3      5225            0.0000000000
     37927      5417  TIP3      H2             36.9822372318       19.0924146057      -35.8516364486  TIP3      5225            0.0000000000
     37928      5418  TIP3      OH2           -35.7742173972       18.0426078252      -34.3860585798  TIP3      5226            0.0000000000
     37929      5418  TIP3      H1            -36.0604688600       17.1140741522      -34.1915591823  TIP3      5226            0.0000000000
     37930      5418  TIP3      H2            -35.4586066222       18.2598339067      -33.4880178855  TIP3      5226            0.0000000000
     37931      5419  TIP3      OH2           -18.2032283707       18.7616668650      -31.4330072537  TIP3      5227            0.0000000000
     37932      5419  TIP3      H1            -18.1763382749       18.9267304515      -30.4742357938  TIP3      5227            0.0000000000
     37933      5419  TIP3      H2            -17.4986646943       19.3427434216      -31.7377511562  TIP3      5227            0.0000000000
     37934      5420  TIP3      OH2           -18.6125037980       18.3617793927      -28.4998157170  TIP3      5228            0.0000000000
     37935      5420  TIP3      H1            -19.1012694002       17.5876089968      -28.8599096039  TIP3      5228            0.0000000000
     37936      5420  TIP3      H2            -18.1163966595       17.9273192615      -27.7853611201  TIP3      5228            0.0000000000
     37937      5421  TIP3      OH2           -18.8574981781       12.3987088801      -38.3889109996  TIP3      5229            0.0000000000
     37938      5421  TIP3      H1            -18.0099992789       12.8150432259      -38.1728448690  TIP3      5229            0.0000000000
     37939      5421  TIP3      H2            -18.8890484054       11.6929378391      -37.7053812533  TIP3      5229            0.0000000000
     37940      5422  TIP3      OH2           -18.5090800807       10.4837246567      -36.5016586272  TIP3      5230            0.0000000000
     37941      5422  TIP3      H1            -19.2575883114        9.9754702559      -36.1130836584  TIP3      5230            0.0000000000
     37942      5422  TIP3      H2            -17.9147096477       10.6187987063      -35.7342801113  TIP3      5230            0.0000000000
     37943      5423  TIP3      OH2           -18.7466777241       13.1939313051      -31.5152152700  TIP3      5231            0.0000000000
     37944      5423  TIP3      H1            -17.9353523379       12.7922175656      -31.8716626005  TIP3      5231            0.0000000000
     37945      5423  TIP3      H2            -18.5979658213       14.1422800656      -31.6734174193  TIP3      5231            0.0000000000
     37946      5424  TIP3      OH2           -20.1866567820       16.1201618046      -29.2694211182  TIP3      5232            0.0000000000
     37947      5424  TIP3      H1            -20.8809725426       16.4021583783      -28.6492364855  TIP3      5232            0.0000000000
     37948      5424  TIP3      H2            -20.7344962059       15.6613166262      -29.9428136169  TIP3      5232            0.0000000000
     37949      5425  TIP3      OH2           -18.1779925095       10.3235856397      -40.1561910849  TIP3      5233            0.0000000000
     37950      5425  TIP3      H1            -18.8097499999       10.6721069272      -40.8107459378  TIP3      5233            0.0000000000
     37951      5425  TIP3      H2            -18.2756713957       11.0022469810      -39.4556886769  TIP3      5233            0.0000000000
     37952      5426  TIP3      OH2           -20.2016385159        7.5647437848      -41.4909335492  TIP3      5234            0.0000000000
     37953      5426  TIP3      H1            -19.7882479587        8.1622296796      -42.1321291933  TIP3      5234            0.0000000000
     37954      5426  TIP3      H2            -20.0320030885        6.7255081742      -41.9628881377  TIP3      5234            0.0000000000
     37955      5427  TIP3      OH2           -20.6877838778        8.9546424911      -35.9404312532  TIP3      5235            0.0000000000
     37956      5427  TIP3      H1            -20.8411917175        8.0000806359      -35.9728089098  TIP3      5235            0.0000000000
     37957      5427  TIP3      H2            -21.0206779108        9.1791787200      -35.0498688914  TIP3      5235            0.0000000000
     37958      5428  TIP3      OH2           -35.6619283102       11.0306945282      -31.9473322776  TIP3      5236            0.0000000000
     37959      5428  TIP3      H1            -35.4638674075       10.9822844462      -32.9041009335  TIP3      5236            0.0000000000
     37960      5428  TIP3      H2            -34.7841290829       10.9136863024      -31.5268530782  TIP3      5236            0.0000000000
     37961      5429  TIP3      OH2           -19.6376777746       10.8475560090      -25.3271685714  TIP3      5237            0.0000000000
     37962      5429  TIP3      H1            -19.3051412959       10.1535632377      -25.9464870082  TIP3      5237            0.0000000000
     37963      5429  TIP3      H2            -19.4539356452       11.5286678150      -26.0245847274  TIP3      5237            0.0000000000
     37964      5430  TIP3      OH2           -18.2432551838        8.7640595790      -25.6920386717  TIP3      5238            0.0000000000
     37965      5430  TIP3      H1            -19.1797529795        8.4697985539      -25.7680803708  TIP3      5238            0.0000000000
     37966      5430  TIP3      H2            -17.7403924432        7.9511556847      -25.7328593024  TIP3      5238            0.0000000000
     37967      5431  TIP3      OH2           -20.5884173129        4.9581643692      -42.4937023205  TIP3      5239            0.0000000000
     37968      5431  TIP3      H1            -20.0088267928        4.5467861443      -41.8197507214  TIP3      5239            0.0000000000
     37969      5431  TIP3      H2            -21.4697632271        4.6072288241      -42.2786053753  TIP3      5239            0.0000000000
     37970      5432  TIP3      OH2           -21.0201194174        6.5387710987      -37.4569577311  TIP3      5240            0.0000000000
     37971      5432  TIP3      H1            -20.7189351965        5.6067952605      -37.3413972766  TIP3      5240            0.0000000000
     37972      5432  TIP3      H2            -20.2399709375        6.9418343191      -37.8618176318  TIP3      5240            0.0000000000
     37973      5433  TIP3      OH2           -20.3806698072        7.0651088015      -32.0326256518  TIP3      5241            0.0000000000
     37974      5433  TIP3      H1            -19.4292151553        7.3341727555      -32.0447526468  TIP3      5241            0.0000000000
     37975      5433  TIP3      H2            -20.5706194406        7.2483368768      -31.0957173178  TIP3      5241            0.0000000000
     37976      5434  TIP3      OH2           -20.3218639501        7.8144203703      -29.2418713999  TIP3      5242            0.0000000000
     37977      5434  TIP3      H1            -21.1838989624        8.1332009097      -28.9058480444  TIP3      5242            0.0000000000
     37978      5434  TIP3      H2            -19.8775128073        8.6810434201      -29.4509477991  TIP3      5242            0.0000000000
     37979      5435  TIP3      OH2           -35.8031123121        6.1921019774      -25.7593941929  TIP3      5243            0.0000000000
     37980      5435  TIP3      H1            -34.9150670759        6.0409210615      -25.4069142311  TIP3      5243            0.0000000000
     37981      5435  TIP3      H2            -36.3943702790        5.5467331942      -25.3127913626  TIP3      5243            0.0000000000
     37982      5436  TIP3      OH2           -18.0752186261        1.9062412482      -23.9550861335  TIP3      5244            0.0000000000
     37983      5436  TIP3      H1            -17.7180378343        1.1630964366      -24.4885069827  TIP3      5244            0.0000000000
     37984      5436  TIP3      H2            -17.8656072175        2.6652676589      -24.4766046098  TIP3      5244            0.0000000000
     37985      5437  TIP3      OH2           -20.3555929837        3.8179905570      -37.4262990603  TIP3      5245            0.0000000000
     37986      5437  TIP3      H1            -20.1292676820        3.3683049944      -36.5787922515  TIP3      5245            0.0000000000
     37987      5437  TIP3      H2            -20.9596221979        3.1872411857      -37.8712633607  TIP3      5245            0.0000000000
     37988      5438  TIP3      OH2           -34.8236506641        4.5964341398      -32.9127784202  TIP3      5246            0.0000000000
     37989      5438  TIP3      H1            -34.3671456715        3.8059288763      -32.5708371866  TIP3      5246            0.0000000000
     37990      5438  TIP3      H2            -34.3313113557        5.3081226082      -32.4683294965  TIP3      5246            0.0000000000
     37991      5439  TIP3      OH2           -36.0098801783        8.3643608160      -31.4775121040  TIP3      5247            0.0000000000
     37992      5439  TIP3      H1            -35.9973840927        7.9360246121      -32.3619600995  TIP3      5247            0.0000000000
     37993      5439  TIP3      H2            -35.9324027080        9.2768967327      -31.7472687518  TIP3      5247            0.0000000000
     37994      5440  TIP3      OH2           -18.5345964532        3.8776113310      -40.8618042019  TIP3      5248            0.0000000000
     37995      5440  TIP3      H1            -18.1025300262        3.1609833303      -41.3575416161  TIP3      5248            0.0000000000
     37996      5440  TIP3      H2            -17.8054890030        4.5189549936      -40.8425621698  TIP3      5248            0.0000000000
     37997      5441  TIP3      OH2           -35.7344542066        3.8706431905      -38.1235073473  TIP3      5249            0.0000000000
     37998      5441  TIP3      H1            -36.6871179840        4.0346109311      -38.0437426994  TIP3      5249            0.0000000000
     37999      5441  TIP3      H2            -35.5435754879        4.5952686718      -38.7551047084  TIP3      5249            0.0000000000
     38000      5442  TIP3      OH2           -21.4820458994       18.8428299665      -35.8047133676  TIP3      5250            0.0000000000
     38001      5442  TIP3      H1            -20.7993753351       18.5371609870      -36.4281881434  TIP3      5250            0.0000000000
     38002      5442  TIP3      H2            -20.9616399292       19.3425971855      -35.1596097886  TIP3      5250            0.0000000000
     38003      5443  TIP3      OH2            37.0158844187        2.4827838458      -29.2832593536  TIP3      5251            0.0000000000
     38004      5443  TIP3      H1             36.2375497428        2.3299576430      -28.7303270198  TIP3      5251            0.0000000000
     38005      5443  TIP3      H2             36.5577751315        3.0602756816      -29.9207392674  TIP3      5251            0.0000000000
     38006      5444  TIP3      OH2           -34.0598684435       15.7798307386      -25.2613949725  TIP3      5252            0.0000000000
     38007      5444  TIP3      H1            -34.8898150420       15.9382867036      -25.7356126357  TIP3      5252            0.0000000000
     38008      5444  TIP3      H2            -34.3606157793       15.6940432008      -24.3599651410  TIP3      5252            0.0000000000
     38009      5445  TIP3      OH2           -31.1027834307       16.7736541056      -28.9973893026  TIP3      5253            0.0000000000
     38010      5445  TIP3      H1            -31.5036785638       17.6074788785      -29.2936940292  TIP3      5253            0.0000000000
     38011      5445  TIP3      H2            -30.1905672131       16.8674061000      -29.3345076535  TIP3      5253            0.0000000000
     38012      5446  TIP3      OH2           -26.7987652697       18.1617331353      -26.1303151087  TIP3      5254            0.0000000000
     38013      5446  TIP3      H1            -26.6624201949       17.8534213685      -25.2053772639  TIP3      5254            0.0000000000
     38014      5446  TIP3      H2            -25.9118932158       18.4999534284      -26.3705840774  TIP3      5254            0.0000000000
     38015      5447  TIP3      OH2           -24.5132369691       19.4309896094      -26.8161095632  TIP3      5255            0.0000000000
     38016      5447  TIP3      H1            -23.7782142187       18.8441607269      -27.0558346810  TIP3      5255            0.0000000000
     38017      5447  TIP3      H2            -24.1367582723       19.8709420260      -26.0251980415  TIP3      5255            0.0000000000
     38018      5448  TIP3      OH2           -19.5159167012        2.0407490731      -27.7191160687  TIP3      5256            0.0000000000
     38019      5448  TIP3      H1            -20.3378605096        2.3549883286      -28.1292558800  TIP3      5256            0.0000000000
     38020      5448  TIP3      H2            -19.3348665242        1.2337077589      -28.2477359302  TIP3      5256            0.0000000000
     38021      5449  TIP3      OH2           -33.6761871407       20.0126241538      -28.9963676350  TIP3      5257            0.0000000000
     38022      5449  TIP3      H1            -34.4287224279       20.4867031618      -29.4075082634  TIP3      5257            0.0000000000
     38023      5449  TIP3      H2            -34.0422245596       19.7863644133      -28.1348482093  TIP3      5257            0.0000000000
     38024      5450  TIP3      OH2           -31.2267800812       19.5785307682      -29.9646119653  TIP3      5258            0.0000000000
     38025      5450  TIP3      H1            -32.1228003392       19.7053132459      -29.5689726485  TIP3      5258            0.0000000000
     38026      5450  TIP3      H2            -31.2835536335       20.1703469628      -30.7348275241  TIP3      5258            0.0000000000
     38027      5451  TIP3      OH2           -26.5298914017       19.4832674982      -30.7854271669  TIP3      5259            0.0000000000
     38028      5451  TIP3      H1            -26.9933445175       20.0381040137      -31.4318575753  TIP3      5259            0.0000000000
     38029      5451  TIP3      H2            -26.3938800975       20.1158258959      -30.0452901612  TIP3      5259            0.0000000000
     38030      5452  TIP3      OH2           -24.2415566284       18.3069510300      -29.7700139592  TIP3      5260            0.0000000000
     38031      5452  TIP3      H1            -25.1031845720       18.5698918324      -30.1248642015  TIP3      5260            0.0000000000
     38032      5452  TIP3      H2            -23.7651852847       19.1498770031      -29.8584290670  TIP3      5260            0.0000000000
     38033      5453  TIP3      OH2           -21.6571855008       19.8653249552      -29.5317766130  TIP3      5261            0.0000000000
     38034      5453  TIP3      H1            -21.7238802199       20.8263198269      -29.7583838826  TIP3      5261            0.0000000000
     38035      5453  TIP3      H2            -21.4409620741       19.4965460383      -30.4099991089  TIP3      5261            0.0000000000
     38036      5454  TIP3      OH2           -34.3088385651       18.6445302575      -32.1071664371  TIP3      5262            0.0000000000
     38037      5454  TIP3      H1            -34.3006329474       18.1962515121      -31.2318248411  TIP3      5262            0.0000000000
     38038      5454  TIP3      H2            -33.4785238301       18.2674344215      -32.4737047219  TIP3      5262            0.0000000000
     38039      5455  TIP3      OH2           -32.1969790837       17.3571217666      -33.4222327443  TIP3      5263            0.0000000000
     38040      5455  TIP3      H1            -32.3552254270       16.4187534125      -33.1974462920  TIP3      5263            0.0000000000
     38041      5455  TIP3      H2            -31.3306148700       17.5032475705      -32.9804319575  TIP3      5263            0.0000000000
     38042      5456  TIP3      OH2           -29.5909135514       17.8315541579      -32.5543523628  TIP3      5264            0.0000000000
     38043      5456  TIP3      H1            -29.4090905986       16.9124273088      -32.8200668434  TIP3      5264            0.0000000000
     38044      5456  TIP3      H2            -29.5213607460       17.7785645036      -31.5904163047  TIP3      5264            0.0000000000
     38045      5457  TIP3      OH2           -26.1070932733        3.4898709730      -33.4166428230  TIP3      5265            0.0000000000
     38046      5457  TIP3      H1            -26.7741008506        2.8464495226      -33.1254753177  TIP3      5265            0.0000000000
     38047      5457  TIP3      H2            -25.5581933175        2.9552269449      -34.0022402558  TIP3      5265            0.0000000000
     38048      5458  TIP3      OH2           -20.9791805526        1.5390480051      -33.3434788420  TIP3      5266            0.0000000000
     38049      5458  TIP3      H1            -20.3642907160        2.1270502915      -33.8549979439  TIP3      5266            0.0000000000
     38050      5458  TIP3      H2            -21.8581772733        1.8971146224      -33.5801554709  TIP3      5266            0.0000000000
     38051      5459  TIP3      OH2           -19.3779376789        2.8634962246      -35.0376440391  TIP3      5267            0.0000000000
     38052      5459  TIP3      H1            -18.7002897524        2.2378947400      -35.4512365310  TIP3      5267            0.0000000000
     38053      5459  TIP3      H2            -18.7917144589        3.6382170667      -34.9676932915  TIP3      5267            0.0000000000
     38054      5460  TIP3      OH2           -33.6849691767        2.1172631831      -35.6098151705  TIP3      5268            0.0000000000
     38055      5460  TIP3      H1            -34.5308714634        1.9079407798      -36.0789539897  TIP3      5268            0.0000000000
     38056      5460  TIP3      H2            -33.2943691005        1.2225421133      -35.5954967307  TIP3      5268            0.0000000000
     38057      5461  TIP3      OH2           -34.8753504681        1.8406049184      -39.7665476758  TIP3      5269            0.0000000000
     38058      5461  TIP3      H1            -34.4988879184        2.4851376952      -40.4041173244  TIP3      5269            0.0000000000
     38059      5461  TIP3      H2            -35.5445594197        2.4099965520      -39.3381631515  TIP3      5269            0.0000000000
     38060      5462  TIP3      OH2           -29.2766382415        2.0641446815      -35.7751838199  TIP3      5270            0.0000000000
     38061      5462  TIP3      H1            -28.3484825483        2.3877453632      -35.8315232578  TIP3      5270            0.0000000000
     38062      5462  TIP3      H2            -29.2792885423        1.8147148570      -34.8392124685  TIP3      5270            0.0000000000
     38063      5463  TIP3      OH2           -23.5834666214        2.0619761963      -34.1506846623  TIP3      5271            0.0000000000
     38064      5463  TIP3      H1            -23.5819896610        2.1639425403      -35.1116398193  TIP3      5271            0.0000000000
     38065      5463  TIP3      H2            -23.9325544554        1.1459439326      -34.0344274880  TIP3      5271            0.0000000000
     38066      5464  TIP3      OH2           -22.2828557288        2.0759491670      -38.4932358840  TIP3      5272            0.0000000000
     38067      5464  TIP3      H1            -23.0151260250        2.6824859959      -38.6529878293  TIP3      5272            0.0000000000
     38068      5464  TIP3      H2            -22.7347542159        1.2269057769      -38.2737887552  TIP3      5272            0.0000000000
     38069      5465  TIP3      OH2           -35.0551302166       17.8317381035      -38.8156388917  TIP3      5273            0.0000000000
     38070      5465  TIP3      H1            -35.6759504606       17.8093988010      -39.5612476385  TIP3      5273            0.0000000000
     38071      5465  TIP3      H2            -35.0258552574       18.7881894038      -38.6870035650  TIP3      5273            0.0000000000
     38072      5466  TIP3      OH2           -33.1526836920        3.7514717486      -41.2911469437  TIP3      5274            0.0000000000
     38073      5466  TIP3      H1            -32.6362692519        3.2030555592      -41.8899755659  TIP3      5274            0.0000000000
     38074      5466  TIP3      H2            -32.4630262839        4.1564697913      -40.7496653785  TIP3      5274            0.0000000000
     38075      5467  TIP3      OH2           -28.1918118669        4.0460883653      -38.8880265702  TIP3      5275            0.0000000000
     38076      5467  TIP3      H1            -27.8017831060        3.4946905897      -38.1931384979  TIP3      5275            0.0000000000
     38077      5467  TIP3      H2            -28.0353291510        4.9315261359      -38.4695334323  TIP3      5275            0.0000000000
     38078      5468  TIP3      OH2           -26.2256039716       19.3847950079      -40.4566125663  TIP3      5276            0.0000000000
     38079      5468  TIP3      H1            -25.2655492191       19.3996355138      -40.6248378676  TIP3      5276            0.0000000000
     38080      5468  TIP3      H2            -26.3954868968       18.6781770795      -41.1275964188  TIP3      5276            0.0000000000
     38081      5469  TIP3      OH2           -19.4832857750       18.6323016655      -37.7732400411  TIP3      5277            0.0000000000
     38082      5469  TIP3      H1            -19.6855772270       17.8536751906      -38.3496541824  TIP3      5277            0.0000000000
     38083      5469  TIP3      H2            -19.5671490953       19.3670086235      -38.4098367747  TIP3      5277            0.0000000000
     38084      5470  TIP3      OH2           -33.8754649135        2.7062800979      -26.0236185773  TIP3      5278            0.0000000000
     38085      5470  TIP3      H1            -34.2240378220        1.8646248597      -25.7360721825  TIP3      5278            0.0000000000
     38086      5470  TIP3      H2            -32.9237057502        2.6242933853      -25.8441070019  TIP3      5278            0.0000000000
     38087      5471  TIP3      OH2           -33.1890353179       18.8092444242      -41.8724056613  TIP3      5279            0.0000000000
     38088      5471  TIP3      H1            -33.5082232559       19.0623036316      -40.9971482250  TIP3      5279            0.0000000000
     38089      5471  TIP3      H2            -32.4455533347       18.2418301233      -41.6985312552  TIP3      5279            0.0000000000
     38090      5472  TIP3      OH2           -23.4273329844        1.3243385652      -24.3633327977  TIP3      5280            0.0000000000
     38091      5472  TIP3      H1            -23.3452487785        0.9012915260      -23.4853363575  TIP3      5280            0.0000000000
     38092      5472  TIP3      H2            -22.5124742589        1.2751804857      -24.7034504998  TIP3      5280            0.0000000000
     38093      5473  TIP3      OH2           -20.2257086065       17.3828926876      -25.7004259163  TIP3      5281            0.0000000000
     38094      5473  TIP3      H1            -21.0402526268       17.2378870428      -26.2215227921  TIP3      5281            0.0000000000
     38095      5473  TIP3      H2            -20.3288351412       18.3281950638      -25.4693772043  TIP3      5281            0.0000000000
     38096      5474  TIP3      OH2            -5.8036041265       11.2492086096      -35.7096570489  TIP3      5282            0.0000000000
     38097      5474  TIP3      H1             -5.8055291221       12.2311333123      -35.7506260256  TIP3      5282            0.0000000000
     38098      5474  TIP3      H2             -6.5264150591       11.0164183042      -36.3118074314  TIP3      5282            0.0000000000
     38099      5475  TIP3      OH2            -6.9464055762       10.5094009264      -32.2050638262  TIP3      5283            0.0000000000
     38100      5475  TIP3      H1             -6.9573882748        9.8552549711      -31.4949570274  TIP3      5283            0.0000000000
     38101      5475  TIP3      H2             -7.2837671844       10.0083027729      -32.9645513286  TIP3      5283            0.0000000000
     38102      5476  TIP3      OH2           -14.5707585339       10.1726644324      -30.6650244226  TIP3      5284            0.0000000000
     38103      5476  TIP3      H1            -14.5228092491        9.5064057658      -29.9471304647  TIP3      5284            0.0000000000
     38104      5476  TIP3      H2            -13.8302182924       10.7522574179      -30.4406716111  TIP3      5284            0.0000000000
     38105      5477  TIP3      OH2            -3.2508312742       13.4554041261      -33.9288326099  TIP3      5285            0.0000000000
     38106      5477  TIP3      H1             -3.6696184699       12.7394496026      -33.4405650576  TIP3      5285            0.0000000000
     38107      5477  TIP3      H2             -3.2323850623       14.1651059928      -33.2599933876  TIP3      5285            0.0000000000
     38108      5478  TIP3      OH2           -13.6611606927       14.6270585418      -32.1479064412  TIP3      5286            0.0000000000
     38109      5478  TIP3      H1            -13.9772211357       13.7624689555      -32.4742453435  TIP3      5286            0.0000000000
     38110      5478  TIP3      H2            -12.7060740113       14.4408571094      -32.1031036890  TIP3      5286            0.0000000000
     38111      5479  TIP3      OH2           -17.0209071319        8.1905726380      -36.6729692626  TIP3      5287            0.0000000000
     38112      5479  TIP3      H1            -17.4608127840        9.0607127942      -36.7244736767  TIP3      5287            0.0000000000
     38113      5479  TIP3      H2            -17.5887627294        7.6530291729      -37.2418307878  TIP3      5287            0.0000000000
     38114      5480  TIP3      OH2           -16.3146068920       10.4117621357      -34.5262690652  TIP3      5288            0.0000000000
     38115      5480  TIP3      H1            -16.0460650748        9.5948272157      -34.0669979734  TIP3      5288            0.0000000000
     38116      5480  TIP3      H2            -15.6130192697       10.5147284870      -35.1799737046  TIP3      5288            0.0000000000
     38117      5481  TIP3      OH2            -6.1346843472       18.6109645405      -33.6909676261  TIP3      5289            0.0000000000
     38118      5481  TIP3      H1             -5.4883388321       17.9170124950      -33.9747141993  TIP3      5289            0.0000000000
     38119      5481  TIP3      H2             -6.3457519462       18.2853698225      -32.8161316367  TIP3      5289            0.0000000000
     38120      5482  TIP3      OH2            -8.5661944919       12.9102367732      -31.7480461298  TIP3      5290            0.0000000000
     38121      5482  TIP3      H1             -8.2270790744       12.2775369683      -32.3995693668  TIP3      5290            0.0000000000
     38122      5482  TIP3      H2             -7.7626424399       13.0642788878      -31.2219710502  TIP3      5290            0.0000000000
     38123      5483  TIP3      OH2             0.0371647538        4.5652610081      -31.0088208111  TIP3      5291            0.0000000000
     38124      5483  TIP3      H1              0.2048840486        5.1566450988      -30.2443869896  TIP3      5291            0.0000000000
     38125      5483  TIP3      H2              0.5939607745        4.9920456802      -31.6755857975  TIP3      5291            0.0000000000
     38126      5484  TIP3      OH2            -5.3989988458        7.3770719110      -31.4266619270  TIP3      5292            0.0000000000
     38127      5484  TIP3      H1             -5.2362781543        6.4172004416      -31.4282515860  TIP3      5292            0.0000000000
     38128      5484  TIP3      H2             -5.5005935581        7.5252039310      -32.3858803223  TIP3      5292            0.0000000000
     38129      5485  TIP3      OH2           -12.2815983794        5.4657367680      -34.2072443937  TIP3      5293            0.0000000000
     38130      5485  TIP3      H1            -12.1823675568        6.3023403951      -34.6959240602  TIP3      5293            0.0000000000
     38131      5485  TIP3      H2            -12.6847376711        4.8933621668      -34.8949759027  TIP3      5293            0.0000000000
     38132      5486  TIP3      OH2            -4.5457167794        5.5153916735      -35.8661489181  TIP3      5294            0.0000000000
     38133      5486  TIP3      H1             -3.8972550392        5.2422603647      -35.1698203559  TIP3      5294            0.0000000000
     38134      5486  TIP3      H2             -3.9848596299        6.1221390783      -36.3807406739  TIP3      5294            0.0000000000
     38135      5487  TIP3      OH2           -15.6551948719        7.8741221447      -33.4728945883  TIP3      5295            0.0000000000
     38136      5487  TIP3      H1            -14.9882925526        7.3242347945      -33.0221677444  TIP3      5295            0.0000000000
     38137      5487  TIP3      H2            -15.5598284424        7.5593162727      -34.3858674929  TIP3      5295            0.0000000000
     38138      5488  TIP3      OH2           -10.4982902139        9.4297007023      -34.1670799953  TIP3      5296            0.0000000000
     38139      5488  TIP3      H1             -9.8345082170        8.8499407258      -33.7543802479  TIP3      5296            0.0000000000
     38140      5488  TIP3      H2            -11.0212138341        8.7696921310      -34.6631171966  TIP3      5296            0.0000000000
     38141      5489  TIP3      OH2             0.4671637323        5.9687348918      -28.7158189331  TIP3      5297            0.0000000000
     38142      5489  TIP3      H1             -0.1335676310        6.7375821070      -28.8382921520  TIP3      5297            0.0000000000
     38143      5489  TIP3      H2              0.5156359934        5.9049553813      -27.7486818862  TIP3      5297            0.0000000000
     38144      5490  TIP3      OH2           -13.3808396957        4.3621848568      -30.1673758452  TIP3      5298            0.0000000000
     38145      5490  TIP3      H1            -13.6589698042        4.9304454159      -30.9164354831  TIP3      5298            0.0000000000
     38146      5490  TIP3      H2            -14.0586661815        4.5935725616      -29.4906457367  TIP3      5298            0.0000000000
     38147      5491  TIP3      OH2            -6.0875059086       13.8425962156      -36.6205724522  TIP3      5299            0.0000000000
     38148      5491  TIP3      H1             -6.3702775442       13.5640103062      -37.5044325143  TIP3      5299            0.0000000000
     38149      5491  TIP3      H2             -6.3946536214       14.7758445074      -36.5754249609  TIP3      5299            0.0000000000
     38150      5492  TIP3      OH2           -10.8619823439       12.0058645617      -29.9221080166  TIP3      5300            0.0000000000
     38151      5492  TIP3      H1            -11.5743196943       12.6485422974      -29.7137730424  TIP3      5300            0.0000000000
     38152      5492  TIP3      H2            -10.1568241310       12.6048543765      -30.2137859134  TIP3      5300            0.0000000000
     38153      5493  TIP3      OH2            -2.7427845585        4.8914822340      -33.8458288123  TIP3      5301            0.0000000000
     38154      5493  TIP3      H1             -2.9586240275        4.1207073718      -33.3129745777  TIP3      5301            0.0000000000
     38155      5493  TIP3      H2             -2.0703148576        5.3279259641      -33.2957350208  TIP3      5301            0.0000000000
     38156      5494  TIP3      OH2           -13.8140092650        6.2230810354      -32.1422666969  TIP3      5302            0.0000000000
     38157      5494  TIP3      H1            -13.1773671323        6.9026392529      -31.8271821316  TIP3      5302            0.0000000000
     38158      5494  TIP3      H2            -13.2939804139        5.8048284438      -32.8735579943  TIP3      5302            0.0000000000
     38159      5495  TIP3      OH2           -12.4106810979       14.0080845742      -29.1048392446  TIP3      5303            0.0000000000
     38160      5495  TIP3      H1            -12.4627780926       14.9193748697      -29.4480696431  TIP3      5303            0.0000000000
     38161      5495  TIP3      H2            -13.2986126222       13.9385879978      -28.6775431383  TIP3      5303            0.0000000000
     38162      5496  TIP3      OH2           -16.3527070496       13.6260752059      -38.3185534454  TIP3      5304            0.0000000000
     38163      5496  TIP3      H1            -16.5642698557       13.9576903731      -39.2132850329  TIP3      5304            0.0000000000
     38164      5496  TIP3      H2            -16.2730578691       14.4606045817      -37.8077924075  TIP3      5304            0.0000000000
     38165      5497  TIP3      OH2            -2.7246836370       15.2916139933      -31.5596012734  TIP3      5305            0.0000000000
     38166      5497  TIP3      H1             -3.6923658992       15.3999613757      -31.4367366774  TIP3      5305            0.0000000000
     38167      5497  TIP3      H2             -2.4551479693       16.2092774831      -31.7554271496  TIP3      5305            0.0000000000
     38168      5498  TIP3      OH2            -2.4053822749        3.5736623073      -30.1704672367  TIP3      5306            0.0000000000
     38169      5498  TIP3      H1             -3.1298787714        4.2077531778      -30.2517783387  TIP3      5306            0.0000000000
     38170      5498  TIP3      H2             -1.6936242499        3.9967621037      -30.6927866063  TIP3      5306            0.0000000000
     38171      5499  TIP3      OH2            -9.4273837337        1.6961559012      -32.6942154771  TIP3      5307            0.0000000000
     38172      5499  TIP3      H1             -9.5690768074        0.7342485976      -32.7769088914  TIP3      5307            0.0000000000
     38173      5499  TIP3      H2            -10.3096447595        2.0021901591      -32.4023509543  TIP3      5307            0.0000000000
     38174      5500  TIP3      OH2            -4.4670791376       17.0749344252      -34.9665516747  TIP3      5308            0.0000000000
     38175      5500  TIP3      H1             -4.0364055045       16.3579818140      -35.4750374900  TIP3      5308            0.0000000000
     38176      5500  TIP3      H2             -4.0426662878       17.8674856950      -35.3574022027  TIP3      5308            0.0000000000
     38177      5501  TIP3      OH2            -3.2586407202       15.0014858035      -36.4579889042  TIP3      5309            0.0000000000
     38178      5501  TIP3      H1             -3.5515461048       14.3069864557      -37.0729212217  TIP3      5309            0.0000000000
     38179      5501  TIP3      H2             -3.2250754025       14.5110192246      -35.6156354131  TIP3      5309            0.0000000000
     38180      5502  TIP3      OH2            -1.6302975624       13.5955447431      -27.9589737270  TIP3      5310            0.0000000000
     38181      5502  TIP3      H1             -1.4898655364       12.9457032215      -28.6831760458  TIP3      5310            0.0000000000
     38182      5502  TIP3      H2             -1.4367580549       14.4434133922      -28.3938899430  TIP3      5310            0.0000000000
     38183      5503  TIP3      OH2            -7.1541154168       10.4930057174      -38.2002613107  TIP3      5311            0.0000000000
     38184      5503  TIP3      H1             -7.8423088023       11.0684607784      -38.5909316274  TIP3      5311            0.0000000000
     38185      5503  TIP3      H2             -6.4360868806       10.5969006142      -38.8484238526  TIP3      5311            0.0000000000
     38186      5504  TIP3      OH2            -7.0886703405        9.0351040078      -41.1358031754  TIP3      5312            0.0000000000
     38187      5504  TIP3      H1             -6.3879708523        9.0407271647      -40.4578780379  TIP3      5312            0.0000000000
     38188      5504  TIP3      H2             -6.7708417680        8.3504929790      -41.6992901504  TIP3      5312            0.0000000000
     38189      5505  TIP3      OH2             0.2456512138        9.9058012173      -29.9125986484  TIP3      5313            0.0000000000
     38190      5505  TIP3      H1             -0.4120045622       10.6281202995      -29.8665201072  TIP3      5313            0.0000000000
     38191      5505  TIP3      H2              0.7364681654       10.1388324952      -30.7209103204  TIP3      5313            0.0000000000
     38192      5506  TIP3      OH2            -3.7122816505       10.6930108607      -37.2593565296  TIP3      5314            0.0000000000
     38193      5506  TIP3      H1             -4.4478960561       10.9449379134      -36.6520055215  TIP3      5314            0.0000000000
     38194      5506  TIP3      H2             -3.2272487396       10.0240320969      -36.7437605020  TIP3      5314            0.0000000000
     38195      5507  TIP3      OH2            -3.7808266450        8.8624325501      -28.1571556945  TIP3      5315            0.0000000000
     38196      5507  TIP3      H1             -3.7532445914        9.6741806867      -27.6208689343  TIP3      5315            0.0000000000
     38197      5507  TIP3      H2             -4.3997224698        9.1656511048      -28.8518816059  TIP3      5315            0.0000000000
     38198      5508  TIP3      OH2           -12.0841307794       11.3582768127      -35.3592594379  TIP3      5316            0.0000000000
     38199      5508  TIP3      H1            -12.4025318918       10.9664496718      -36.2053794651  TIP3      5316            0.0000000000
     38200      5508  TIP3      H2            -11.4701027500       10.6676333028      -35.0215639582  TIP3      5316            0.0000000000
     38201      5509  TIP3      OH2           -10.7606788732       14.7471598880      -32.6760911539  TIP3      5317            0.0000000000
     38202      5509  TIP3      H1            -10.7726486232       14.2143325384      -33.4800518164  TIP3      5317            0.0000000000
     38203      5509  TIP3      H2             -9.9800501129       14.3867551678      -32.2175392225  TIP3      5317            0.0000000000
     38204      5510  TIP3      OH2           -11.7491633869       10.1046941824      -31.6982913267  TIP3      5318            0.0000000000
     38205      5510  TIP3      H1            -11.1966142221       10.2101261781      -32.4971421305  TIP3      5318            0.0000000000
     38206      5510  TIP3      H2            -11.3663233643       10.7695602160      -31.0849268547  TIP3      5318            0.0000000000
     38207      5511  TIP3      OH2            -5.3417305710       15.6723624351      -30.9925962768  TIP3      5319            0.0000000000
     38208      5511  TIP3      H1             -5.6300158603       16.3098483231      -30.3347016535  TIP3      5319            0.0000000000
     38209      5511  TIP3      H2             -5.5960970542       14.8190676868      -30.5665546829  TIP3      5319            0.0000000000
     38210      5512  TIP3      OH2           -10.7986448904       14.5342507379      -27.0041470278  TIP3      5320            0.0000000000
     38211      5512  TIP3      H1            -11.2065107231       15.2743136249      -26.5090650198  TIP3      5320            0.0000000000
     38212      5512  TIP3      H2            -11.4822227936       14.3364852826      -27.6899865657  TIP3      5320            0.0000000000
     38213      5513  TIP3      OH2            -4.8120686189        9.8586693456      -39.6090773491  TIP3      5321            0.0000000000
     38214      5513  TIP3      H1             -4.2850004400       10.0756373556      -38.7962757194  TIP3      5321            0.0000000000
     38215      5513  TIP3      H2             -4.4050806130       10.4337541538      -40.2865363032  TIP3      5321            0.0000000000
     38216      5514  TIP3      OH2           -13.8720541233       10.6989439971      -27.8104856291  TIP3      5322            0.0000000000
     38217      5514  TIP3      H1            -13.8320296890       11.3757737566      -27.1102143929  TIP3      5322            0.0000000000
     38218      5514  TIP3      H2            -14.8049566058       10.7956800384      -28.0850611849  TIP3      5322            0.0000000000
     38219      5515  TIP3      OH2            -7.1154211556       16.6150210892      -36.1212973280  TIP3      5323            0.0000000000
     38220      5515  TIP3      H1             -6.6711362627       16.9318889616      -35.3276753738  TIP3      5323            0.0000000000
     38221      5515  TIP3      H2             -7.6655095316       17.3649961263      -36.3798581865  TIP3      5323            0.0000000000
     38222      5516  TIP3      OH2           -12.5818535155       16.5258682253      -26.2461845185  TIP3      5324            0.0000000000
     38223      5516  TIP3      H1            -12.6214628195       16.4546080095      -27.2172693125  TIP3      5324            0.0000000000
     38224      5516  TIP3      H2            -13.5174106337       16.4681214001      -25.9827607856  TIP3      5324            0.0000000000
     38225      5517  TIP3      OH2            -1.1039298886        1.6276449055      -39.7175715483  TIP3      5325            0.0000000000
     38226      5517  TIP3      H1             -2.0479377251        1.7446226342      -39.4624120393  TIP3      5325            0.0000000000
     38227      5517  TIP3      H2             -0.8874443428        2.4838469400      -40.1229632841  TIP3      5325            0.0000000000
     38228      5518  TIP3      OH2           -13.0926281004       10.3754098337      -37.7802573921  TIP3      5326            0.0000000000
     38229      5518  TIP3      H1            -13.3978842988       11.1710384044      -38.2604973829  TIP3      5326            0.0000000000
     38230      5518  TIP3      H2            -13.7773032961        9.7269888773      -37.9532199916  TIP3      5326            0.0000000000
     38231      5519  TIP3      OH2            -0.0010388489       15.9558598423      -41.3383728887  TIP3      5327            0.0000000000
     38232      5519  TIP3      H1              0.1281480912       16.9174551866      -41.2150980163  TIP3      5327            0.0000000000
     38233      5519  TIP3      H2              0.9322575922       15.6843901768      -41.4083702413  TIP3      5327            0.0000000000
     38234      5520  TIP3      OH2           -16.9315447859       12.8038328005      -28.9122663184  TIP3      5328            0.0000000000
     38235      5520  TIP3      H1            -17.4894115560       12.7340806421      -29.7076625750  TIP3      5328            0.0000000000
     38236      5520  TIP3      H2            -16.9965416857       11.8723918746      -28.6262174869  TIP3      5328            0.0000000000
     38237      5521  TIP3      OH2           -17.2598306129       15.5486741994      -32.0686704552  TIP3      5329            0.0000000000
     38238      5521  TIP3      H1            -16.3022833485       15.4295323133      -32.0855155021  TIP3      5329            0.0000000000
     38239      5521  TIP3      H2            -17.3452240609       16.3632519571      -31.5583719473  TIP3      5329            0.0000000000
     38240      5522  TIP3      OH2             0.9869784506       16.2414319205      -26.3330464817  TIP3      5330            0.0000000000
     38241      5522  TIP3      H1              0.8572927723       15.2894851041      -26.4397911658  TIP3      5330            0.0000000000
     38242      5522  TIP3      H2              0.0887255345       16.4963429416      -26.0193852244  TIP3      5330            0.0000000000
     38243      5523  TIP3      OH2            -8.0699684645       15.7866810205      -27.5309227707  TIP3      5331            0.0000000000
     38244      5523  TIP3      H1             -7.9988197674       16.6269330005      -27.0155664029  TIP3      5331            0.0000000000
     38245      5523  TIP3      H2             -8.9386481178       15.4361679739      -27.2577636920  TIP3      5331            0.0000000000
     38246      5524  TIP3      OH2            -7.6362025699       19.5323691870      -37.7215050568  TIP3      5332            0.0000000000
     38247      5524  TIP3      H1             -7.7128348972       19.4675297085      -38.6895030635  TIP3      5332            0.0000000000
     38248      5524  TIP3      H2             -7.6032574772       20.4938107565      -37.5637768174  TIP3      5332            0.0000000000
     38249      5525  TIP3      OH2           -13.9873357852       18.4104688002      -35.8981590960  TIP3      5333            0.0000000000
     38250      5525  TIP3      H1            -13.8446262191       18.0000097797      -35.0164309507  TIP3      5333            0.0000000000
     38251      5525  TIP3      H2            -14.8359897450       18.0043410383      -36.1384567764  TIP3      5333            0.0000000000
     38252      5526  TIP3      OH2            -4.6010621771       18.7353722200      -40.7561988374  TIP3      5334            0.0000000000
     38253      5526  TIP3      H1             -4.1313370979       17.9766844774      -41.1697533334  TIP3      5334            0.0000000000
     38254      5526  TIP3      H2             -4.5293338880       18.4924995146      -39.8129458669  TIP3      5334            0.0000000000
     38255      5527  TIP3      OH2            -4.8828478046       18.6805499304      -37.9576698702  TIP3      5335            0.0000000000
     38256      5527  TIP3      H1             -5.8396419815       18.7483659694      -37.7721006707  TIP3      5335            0.0000000000
     38257      5527  TIP3      H2             -4.6313943264       17.9387506239      -37.3874973553  TIP3      5335            0.0000000000
     38258      5528  TIP3      OH2            -1.8839242706        7.7383238166      -25.9653510407  TIP3      5336            0.0000000000
     38259      5528  TIP3      H1             -2.3659452455        8.1836572327      -26.6677467389  TIP3      5336            0.0000000000
     38260      5528  TIP3      H2             -1.8670801527        6.8023555716      -26.2091485987  TIP3      5336            0.0000000000
     38261      5529  TIP3      OH2           -14.7310533290       14.1238826264      -27.8895451989  TIP3      5337            0.0000000000
     38262      5529  TIP3      H1            -14.5422988049       13.7441680013      -27.0099550395  TIP3      5337            0.0000000000
     38263      5529  TIP3      H2            -15.6019964186       13.7323758181      -28.1282271171  TIP3      5337            0.0000000000
     38264      5530  TIP3      OH2           -12.0664101744        2.5865666837      -31.9587183496  TIP3      5338            0.0000000000
     38265      5530  TIP3      H1            -12.9700888127        2.4714459099      -32.3240105072  TIP3      5338            0.0000000000
     38266      5530  TIP3      H2            -12.1952095219        3.4187749598      -31.4766470284  TIP3      5338            0.0000000000
     38267      5531  TIP3      OH2            -7.4161702503        2.2956652339      -28.5520921054  TIP3      5339            0.0000000000
     38268      5531  TIP3      H1             -7.0327081903        1.8410122528      -27.7872471688  TIP3      5339            0.0000000000
     38269      5531  TIP3      H2             -8.3925306590        2.1523988016      -28.4483047020  TIP3      5339            0.0000000000
     38270      5532  TIP3      OH2            -4.1491665465        6.0980836177      -27.7089065216  TIP3      5340            0.0000000000
     38271      5532  TIP3      H1             -4.6786697393        5.9210220150      -26.9038633869  TIP3      5340            0.0000000000
     38272      5532  TIP3      H2             -4.2943185296        7.0356856659      -27.9229082194  TIP3      5340            0.0000000000
     38273      5533  TIP3      OH2            -3.3001536205       10.9528038283      -41.7959996142  TIP3      5341            0.0000000000
     38274      5533  TIP3      H1             -3.2618639301       10.8090612815      -42.7545710724  TIP3      5341            0.0000000000
     38275      5533  TIP3      H2             -2.4437115287       11.4046745935      -41.6599502030  TIP3      5341            0.0000000000
     38276      5534  TIP3      OH2            -7.7271780124        4.8269516867      -41.2380173505  TIP3      5342            0.0000000000
     38277      5534  TIP3      H1             -8.1248571757        4.8289698539      -40.3475250668  TIP3      5342            0.0000000000
     38278      5534  TIP3      H2             -8.0611780765        3.9757417224      -41.5627175055  TIP3      5342            0.0000000000
     38279      5535  TIP3      OH2           -11.9575706030        7.5711379491      -30.7041085252  TIP3      5343            0.0000000000
     38280      5535  TIP3      H1            -12.6947333593        7.5594102400      -30.0629649839  TIP3      5343            0.0000000000
     38281      5535  TIP3      H2            -12.0040859261        8.4810445192      -31.0718563498  TIP3      5343            0.0000000000
     38282      5536  TIP3      OH2           -11.9996282599        7.6967419709      -35.8416219720  TIP3      5344            0.0000000000
     38283      5536  TIP3      H1            -12.9371735032        7.4376443151      -35.9658199451  TIP3      5344            0.0000000000
     38284      5536  TIP3      H2            -11.6194815113        7.3958644894      -36.6886527916  TIP3      5344            0.0000000000
     38285      5537  TIP3      OH2            -6.4897889760        8.1554050256      -37.1158781443  TIP3      5345            0.0000000000
     38286      5537  TIP3      H1             -6.8844257929        9.0086370847      -37.4065763934  TIP3      5345            0.0000000000
     38287      5537  TIP3      H2             -5.7705930314        8.0521006076      -37.7636602285  TIP3      5345            0.0000000000
     38288      5538  TIP3      OH2            -7.4115822145        8.3805011052      -25.6558573000  TIP3      5346            0.0000000000
     38289      5538  TIP3      H1             -7.9568132382        7.6312621651      -25.3286827209  TIP3      5346            0.0000000000
     38290      5538  TIP3      H2             -6.5704336492        8.2585302445      -25.2035403615  TIP3      5346            0.0000000000
     38291      5539  TIP3      OH2            -5.4422935269        7.6834355167      -34.2190636032  TIP3      5347            0.0000000000
     38292      5539  TIP3      H1             -5.7201959750        8.2417045721      -34.9649257666  TIP3      5347            0.0000000000
     38293      5539  TIP3      H2             -5.3360763647        6.8348833821      -34.6821012691  TIP3      5347            0.0000000000
     38294      5540  TIP3      OH2           -14.3302442825        7.8376529063      -29.0143602505  TIP3      5348            0.0000000000
     38295      5540  TIP3      H1            -14.2627690986        8.2326456018      -28.1273959009  TIP3      5348            0.0000000000
     38296      5540  TIP3      H2            -14.7714117274        6.9955233831      -28.8226970210  TIP3      5348            0.0000000000
     38297      5541  TIP3      OH2           -10.7770496379        5.4546425515      -41.8325191028  TIP3      5349            0.0000000000
     38298      5541  TIP3      H1            -11.3205243640        4.8039717186      -41.3375545201  TIP3      5349            0.0000000000
     38299      5541  TIP3      H2            -11.3947096123        5.7636320369      -42.4928284169  TIP3      5349            0.0000000000
     38300      5542  TIP3      OH2           -17.6744428597        4.9602805728      -35.0416046015  TIP3      5350            0.0000000000
     38301      5542  TIP3      H1            -16.9990156857        4.9017787006      -34.3367496172  TIP3      5350            0.0000000000
     38302      5542  TIP3      H2            -17.2363425716        4.5495663458      -35.8145847951  TIP3      5350            0.0000000000
     38303      5543  TIP3      OH2           -16.3700318233        5.6739691854      -39.6686734449  TIP3      5351            0.0000000000
     38304      5543  TIP3      H1            -15.8994405068        6.2653057920      -40.2737628555  TIP3      5351            0.0000000000
     38305      5543  TIP3      H2            -17.0773611036        6.2634569005      -39.3285641166  TIP3      5351            0.0000000000
     38306      5544  TIP3      OH2            -6.2398601626        9.2691342009      -29.6567346427  TIP3      5352            0.0000000000
     38307      5544  TIP3      H1             -5.8673641784        8.5874536606      -30.2512282285  TIP3      5352            0.0000000000
     38308      5544  TIP3      H2             -6.7075060241        8.7323810815      -28.9948406170  TIP3      5352            0.0000000000
     38309      5545  TIP3      OH2            -9.4352297164        5.2089778811      -34.8333727793  TIP3      5353            0.0000000000
     38310      5545  TIP3      H1            -10.3696080466        5.2559937382      -34.5370881520  TIP3      5353            0.0000000000
     38311      5545  TIP3      H2             -8.9626326754        5.0937272720      -33.9942664291  TIP3      5353            0.0000000000
     38312      5546  TIP3      OH2           -14.6304897589        6.7982414566      -35.9646581320  TIP3      5354            0.0000000000
     38313      5546  TIP3      H1            -15.5179917912        6.9458696643      -36.3507414183  TIP3      5354            0.0000000000
     38314      5546  TIP3      H2            -14.3463167036        5.9614471869      -36.3666414268  TIP3      5354            0.0000000000
     38315      5547  TIP3      OH2           -10.9675665940        6.8244596638      -38.3398373001  TIP3      5355            0.0000000000
     38316      5547  TIP3      H1            -10.0280700652        6.9821668944      -38.1533497785  TIP3      5355            0.0000000000
     38317      5547  TIP3      H2            -11.2114824081        7.5012149575      -38.9945427149  TIP3      5355            0.0000000000
     38318      5548  TIP3      OH2            -5.0363836033        4.4728684905      -31.5915723257  TIP3      5356            0.0000000000
     38319      5548  TIP3      H1             -5.7250777041        4.5319867773      -30.8910692108  TIP3      5356            0.0000000000
     38320      5548  TIP3      H2             -5.5452586487        4.2295118499      -32.3769502700  TIP3      5356            0.0000000000
     38321      5549  TIP3      OH2           -12.3423390890        8.0945546814      -40.7852328466  TIP3      5357            0.0000000000
     38322      5549  TIP3      H1            -12.8147810641        7.5722461718      -41.4403886782  TIP3      5357            0.0000000000
     38323      5549  TIP3      H2            -11.4531455535        8.2089735137      -41.1676262893  TIP3      5357            0.0000000000
     38324      5550  TIP3      OH2            -1.8219461635       20.1134182687      -25.2396801741  TIP3      5358            0.0000000000
     38325      5550  TIP3      H1             -1.5673536301       20.5043271118      -26.0963790617  TIP3      5358            0.0000000000
     38326      5550  TIP3      H2             -1.1036629057       20.4517870423      -24.6745765439  TIP3      5358            0.0000000000
     38327      5551  TIP3      OH2           -14.1853664449       12.5597200020      -25.6902174372  TIP3      5359            0.0000000000
     38328      5551  TIP3      H1            -13.4627257116       12.8587301687      -25.0958810521  TIP3      5359            0.0000000000
     38329      5551  TIP3      H2            -14.9524898459       12.7376940427      -25.1449161043  TIP3      5359            0.0000000000
     38330      5552  TIP3      OH2            -8.1582015856        7.9951164217      -32.9389200274  TIP3      5360            0.0000000000
     38331      5552  TIP3      H1             -7.5590074045        7.4630055198      -33.4753333598  TIP3      5360            0.0000000000
     38332      5552  TIP3      H2             -8.3019076811        7.4403529607      -32.1603581426  TIP3      5360            0.0000000000
     38333      5553  TIP3      OH2           -13.1485032743        4.1492733682      -36.4851833536  TIP3      5361            0.0000000000
     38334      5553  TIP3      H1            -13.4723439775        3.2244232944      -36.5100548435  TIP3      5361            0.0000000000
     38335      5553  TIP3      H2            -12.3792745081        4.0683699833      -37.0567785234  TIP3      5361            0.0000000000
     38336      5554  TIP3      OH2            -9.5165074662        6.3317223854      -30.5345780299  TIP3      5362            0.0000000000
     38337      5554  TIP3      H1            -10.3447122128        6.8414235861      -30.4340005555  TIP3      5362            0.0000000000
     38338      5554  TIP3      H2             -8.9665203643        6.6729779132      -29.8009600467  TIP3      5362            0.0000000000
     38339      5555  TIP3      OH2            -8.9256300134       12.5336181029      -38.8052927351  TIP3      5363            0.0000000000
     38340      5555  TIP3      H1             -9.7288830467       12.0824005654      -39.1449517914  TIP3      5363            0.0000000000
     38341      5555  TIP3      H2             -9.1492625739       12.6557033663      -37.8627864508  TIP3      5363            0.0000000000
     38342      5556  TIP3      OH2            -1.7525172155       11.7475871513      -30.0241063820  TIP3      5364            0.0000000000
     38343      5556  TIP3      H1             -1.1821726263       12.2289027517      -30.6501852837  TIP3      5364            0.0000000000
     38344      5556  TIP3      H2             -2.6104883486       11.8029162412      -30.4922827884  TIP3      5364            0.0000000000
     38345      5557  TIP3      OH2            -5.0824944546        5.3412567713      -40.6374817189  TIP3      5365            0.0000000000
     38346      5557  TIP3      H1             -6.0198516562        5.5182539806      -40.8031113102  TIP3      5365            0.0000000000
     38347      5557  TIP3      H2             -4.7517505836        6.2052496064      -40.3056058805  TIP3      5365            0.0000000000
     38348      5558  TIP3      OH2            -7.4334884215       12.8022033100      -27.5807105629  TIP3      5366            0.0000000000
     38349      5558  TIP3      H1             -7.7813614255       12.3960569813      -26.7809497894  TIP3      5366            0.0000000000
     38350      5558  TIP3      H2             -7.6854824532       13.7285837295      -27.4851088919  TIP3      5366            0.0000000000
     38351      5559  TIP3      OH2            -4.3574254557        7.2517994967      -39.0086754958  TIP3      5367            0.0000000000
     38352      5559  TIP3      H1             -3.4675765755        7.1528107959      -38.6050052547  TIP3      5367            0.0000000000
     38353      5559  TIP3      H2             -4.2725064067        8.0972518820      -39.4773145956  TIP3      5367            0.0000000000
     38354      5560  TIP3      OH2           -13.8132486006       11.9441291029      -33.0309764289  TIP3      5368            0.0000000000
     38355      5560  TIP3      H1            -13.1252752650       11.8622636779      -33.7165618405  TIP3      5368            0.0000000000
     38356      5560  TIP3      H2            -13.7619674289       11.0837472319      -32.5735342043  TIP3      5368            0.0000000000
     38357      5561  TIP3      OH2            -6.8309698847       14.0242242877      -39.7629204832  TIP3      5369            0.0000000000
     38358      5561  TIP3      H1             -7.1957234352       14.8697619415      -39.4247143398  TIP3      5369            0.0000000000
     38359      5561  TIP3      H2             -7.5689261119       13.3978350920      -39.5888248451  TIP3      5369            0.0000000000
     38360      5562  TIP3      OH2           -16.7302923333       10.2759232265      -27.8055443592  TIP3      5370            0.0000000000
     38361      5562  TIP3      H1            -16.7079979912        9.9013849477      -26.9156174485  TIP3      5370            0.0000000000
     38362      5562  TIP3      H2            -17.4875972604        9.7855984907      -28.1887289450  TIP3      5370            0.0000000000
     38363      5563  TIP3      OH2            -9.8276166506        9.8914820957      -25.5785829814  TIP3      5371            0.0000000000
     38364      5563  TIP3      H1            -10.1287381304        9.6157919234      -26.4584285193  TIP3      5371            0.0000000000
     38365      5563  TIP3      H2             -8.8927187036        9.6213862469      -25.5979798968  TIP3      5371            0.0000000000
     38366      5564  TIP3      OH2            -5.1385234911       15.2362944332      -27.6319684236  TIP3      5372            0.0000000000
     38367      5564  TIP3      H1             -6.0614190253       15.4164343406      -27.8801150211  TIP3      5372            0.0000000000
     38368      5564  TIP3      H2             -5.1776143820       15.5407865103      -26.7072038799  TIP3      5372            0.0000000000
     38369      5565  TIP3      OH2             0.5318006750        7.4202995401      -39.2296660901  TIP3      5373            0.0000000000
     38370      5565  TIP3      H1             -0.0297308534        7.1074260928      -39.9598721235  TIP3      5373            0.0000000000
     38371      5565  TIP3      H2              0.6119420207        8.3582534071      -39.5112982880  TIP3      5373            0.0000000000
     38372      5566  TIP3      OH2             0.5258831667       13.2704870800      -26.4218038991  TIP3      5374            0.0000000000
     38373      5566  TIP3      H1             -0.3550432133       13.4911653435      -26.8153238291  TIP3      5374            0.0000000000
     38374      5566  TIP3      H2              1.0767138792       13.2208492414      -27.2331435539  TIP3      5374            0.0000000000
     38375      5567  TIP3      OH2            -1.1683648803       16.2511810461      -38.8487124998  TIP3      5375            0.0000000000
     38376      5567  TIP3      H1             -1.5413878742       15.4234094142      -38.5184062193  TIP3      5375            0.0000000000
     38377      5567  TIP3      H2             -0.8701854556       16.0562537706      -39.7569415467  TIP3      5375            0.0000000000
     38378      5568  TIP3      OH2            -3.9695214273       11.0664143013      -31.7413689503  TIP3      5376            0.0000000000
     38379      5568  TIP3      H1             -4.9121806578       10.8536765612      -31.8466398405  TIP3      5376            0.0000000000
     38380      5568  TIP3      H2             -3.5399903842       10.3038275152      -32.1716984364  TIP3      5376            0.0000000000
     38381      5569  TIP3      OH2           -11.4529571890       15.3949345691      -35.6414188152  TIP3      5377            0.0000000000
     38382      5569  TIP3      H1            -10.9493898682       16.1996004794      -35.8485485298  TIP3      5377            0.0000000000
     38383      5569  TIP3      H2            -12.3304266634       15.6310189530      -35.9707932185  TIP3      5377            0.0000000000
     38384      5570  TIP3      OH2           -15.6801014935       10.2616051428      -41.1601872203  TIP3      5378            0.0000000000
     38385      5570  TIP3      H1            -15.1031201957       10.8887125024      -40.6748312863  TIP3      5378            0.0000000000
     38386      5570  TIP3      H2            -16.5625316245       10.5158175391      -40.7979012595  TIP3      5378            0.0000000000
     38387      5571  TIP3      OH2           -10.0290133710       13.0583065377      -36.1148938991  TIP3      5379            0.0000000000
     38388      5571  TIP3      H1            -10.3386869951       13.9823445949      -36.0377639318  TIP3      5379            0.0000000000
     38389      5571  TIP3      H2            -10.7576933257       12.5751350915      -35.6777063779  TIP3      5379            0.0000000000
     38390      5572  TIP3      OH2            -9.5783673254       17.2437396456      -29.7186567733  TIP3      5380            0.0000000000
     38391      5572  TIP3      H1             -9.1269210199       18.0556598395      -30.0005426652  TIP3      5380            0.0000000000
     38392      5572  TIP3      H2             -8.9680456018       16.9074174194      -29.0373503391  TIP3      5380            0.0000000000
     38393      5573  TIP3      OH2           -11.3535371965       18.0615053624      -36.5994306617  TIP3      5381            0.0000000000
     38394      5573  TIP3      H1            -12.3195708810       18.1961688014      -36.4570296865  TIP3      5381            0.0000000000
     38395      5573  TIP3      H2            -10.9962340386       18.8939613930      -36.2378343521  TIP3      5381            0.0000000000
     38396      5574  TIP3      OH2            -6.0520387454       13.2523030966      -30.0952134936  TIP3      5382            0.0000000000
     38397      5574  TIP3      H1             -6.3887090772       13.0561350127      -29.1975382624  TIP3      5382            0.0000000000
     38398      5574  TIP3      H2             -5.4153846265       12.5387317864      -30.2610688483  TIP3      5382            0.0000000000
     38399      5575  TIP3      OH2            -3.7712096028       14.2767869671      -40.9752187821  TIP3      5383            0.0000000000
     38400      5575  TIP3      H1             -3.4608159780       13.8365013914      -40.1597233239  TIP3      5383            0.0000000000
     38401      5575  TIP3      H2             -4.7269691916       14.1265158937      -40.9048573493  TIP3      5383            0.0000000000
     38402      5576  TIP3      OH2            -3.2512574621       17.8313102019      -27.5914142522  TIP3      5384            0.0000000000
     38403      5576  TIP3      H1             -3.9287667538       17.3304976076      -28.0856298366  TIP3      5384            0.0000000000
     38404      5576  TIP3      H2             -3.0560236738       18.5252372360      -28.2570870319  TIP3      5384            0.0000000000
     38405      5577  TIP3      OH2             0.7483006284       18.7017029973      -40.7529775881  TIP3      5385            0.0000000000
     38406      5577  TIP3      H1              1.4470067521       19.3356947530      -40.9923830446  TIP3      5385            0.0000000000
     38407      5577  TIP3      H2              0.0299214686       19.3020863839      -40.4557864851  TIP3      5385            0.0000000000
     38408      5578  TIP3      OH2           -15.1729839623        5.1065337803      -28.1709294399  TIP3      5386            0.0000000000
     38409      5578  TIP3      H1            -16.0894012042        5.4190412858      -28.2765909795  TIP3      5386            0.0000000000
     38410      5578  TIP3      H2            -15.2884421113        4.2291602018      -27.7740602190  TIP3      5386            0.0000000000
     38411      5579  TIP3      OH2            -2.9383789316       12.9401148506      -38.7596942202  TIP3      5387            0.0000000000
     38412      5579  TIP3      H1             -3.1815211345       12.1442090184      -38.2424915985  TIP3      5387            0.0000000000
     38413      5579  TIP3      H2             -1.9914331906       13.0096096562      -38.5533948435  TIP3      5387            0.0000000000
     38414      5580  TIP3      OH2           -15.5666492442       16.8731782962      -29.7846531460  TIP3      5388            0.0000000000
     38415      5580  TIP3      H1            -15.2625011081       15.9520309236      -29.7832427323  TIP3      5388            0.0000000000
     38416      5580  TIP3      H2            -15.3118140799       17.1604946205      -28.8984263065  TIP3      5388            0.0000000000
     38417      5581  TIP3      OH2           -10.8144419302       14.9512706803      -40.0798022940  TIP3      5389            0.0000000000
     38418      5581  TIP3      H1            -10.5634645686       14.3940476910      -39.3320053481  TIP3      5389            0.0000000000
     38419      5581  TIP3      H2            -10.7367143132       15.8626196519      -39.7352679726  TIP3      5389            0.0000000000
     38420      5582  TIP3      OH2           -14.3322718771       12.1780224218      -39.6401801708  TIP3      5390            0.0000000000
     38421      5582  TIP3      H1            -14.9813878436       12.5765725809      -39.0171987426  TIP3      5390            0.0000000000
     38422      5582  TIP3      H2            -13.7583276484       12.9430184130      -39.8277160652  TIP3      5390            0.0000000000
     38423      5583  TIP3      OH2            -6.4528805321        4.8609109336      -29.2729828489  TIP3      5391            0.0000000000
     38424      5583  TIP3      H1             -5.7356137356        4.9100061351      -28.6311101931  TIP3      5391            0.0000000000
     38425      5583  TIP3      H2             -6.8420567506        3.9819644521      -29.0894644677  TIP3      5391            0.0000000000
     38426      5584  TIP3      OH2            -5.6929399985        4.4573371085      -38.1549653512  TIP3      5392            0.0000000000
     38427      5584  TIP3      H1             -5.4164229490        4.9400560180      -38.9676267763  TIP3      5392            0.0000000000
     38428      5584  TIP3      H2             -5.0999735200        4.9009116326      -37.5188608800  TIP3      5392            0.0000000000
     38429      5585  TIP3      OH2            -8.0190150733       16.6000657274      -39.3397271214  TIP3      5393            0.0000000000
     38430      5585  TIP3      H1             -8.8373960445       17.1204569772      -39.2835139745  TIP3      5393            0.0000000000
     38431      5585  TIP3      H2             -7.4765242510       17.0979447558      -39.9755157172  TIP3      5393            0.0000000000
     38432      5586  TIP3      OH2            -8.4437868025        6.1266320079      -37.3546572894  TIP3      5394            0.0000000000
     38433      5586  TIP3      H1             -7.7092327424        6.7771552772      -37.3261224432  TIP3      5394            0.0000000000
     38434      5586  TIP3      H2             -8.7542713324        6.0834790067      -36.4297611535  TIP3      5394            0.0000000000
     38435      5587  TIP3      OH2            -7.9192447614        7.2070939497      -28.1985567073  TIP3      5395            0.0000000000
     38436      5587  TIP3      H1             -7.8496316386        7.7699640034      -27.4047812165  TIP3      5395            0.0000000000
     38437      5587  TIP3      H2             -7.2644127005        6.5080710559      -28.0780216428  TIP3      5395            0.0000000000
     38438      5588  TIP3      OH2            -7.6164886742        3.2897220958      -36.3567231842  TIP3      5396            0.0000000000
     38439      5588  TIP3      H1             -7.9892488246        3.9234891918      -35.6956257679  TIP3      5396            0.0000000000
     38440      5588  TIP3      H2             -6.9195943346        3.8856217544      -36.7054124157  TIP3      5396            0.0000000000
     38441      5589  TIP3      OH2           -10.6506116289       17.6370077280      -39.3237123099  TIP3      5397            0.0000000000
     38442      5589  TIP3      H1            -10.4770155852       18.4583334205      -39.8290169160  TIP3      5397            0.0000000000
     38443      5589  TIP3      H2            -10.8918952118       17.9791399523      -38.4329495133  TIP3      5397            0.0000000000
     38444      5590  TIP3      OH2           -11.9514493112        4.3186837704      -39.7066471264  TIP3      5398            0.0000000000
     38445      5590  TIP3      H1            -12.0349473284        5.2326157931      -39.3700203385  TIP3      5398            0.0000000000
     38446      5590  TIP3      H2            -11.0440246105        4.1059122507      -39.4594250395  TIP3      5398            0.0000000000
     38447      5591  TIP3      OH2            -1.7616287427        5.0588036589      -27.3098518599  TIP3      5399            0.0000000000
     38448      5591  TIP3      H1             -2.6769622855        5.3954891327      -27.4449742906  TIP3      5399            0.0000000000
     38449      5591  TIP3      H2             -1.4379534888        5.0700503842      -28.2249700332  TIP3      5399            0.0000000000
     38450      5592  TIP3      OH2            -3.1292281939        8.8597313993      -33.3004231421  TIP3      5400            0.0000000000
     38451      5592  TIP3      H1             -3.9531820964        8.4171564522      -33.5793481437  TIP3      5400            0.0000000000
     38452      5592  TIP3      H2             -2.6544547310        8.1701685376      -32.7825911097  TIP3      5400            0.0000000000
     38453      5593  TIP3      OH2           -13.7233758396       14.7949335824      -40.7010349938  TIP3      5401            0.0000000000
     38454      5593  TIP3      H1            -13.0814499422       15.4380531602      -40.3868148996  TIP3      5401            0.0000000000
     38455      5593  TIP3      H2            -13.2010990312       14.3355469436      -41.3873142060  TIP3      5401            0.0000000000
     38456      5594  TIP3      OH2           -15.2879651883        7.5383535782      -41.6601709129  TIP3      5402            0.0000000000
     38457      5594  TIP3      H1            -15.4417211534        8.4280856683      -41.3070999030  TIP3      5402            0.0000000000
     38458      5594  TIP3      H2            -16.1996432684        7.2293869651      -41.8334539880  TIP3      5402            0.0000000000
     38459      5595  TIP3      OH2            -2.0672876478       18.1160623030      -31.6301102936  TIP3      5403            0.0000000000
     38460      5595  TIP3      H1             -2.1611863824       18.7987308133      -32.3217570658  TIP3      5403            0.0000000000
     38461      5595  TIP3      H2             -1.1031376607       18.1723463700      -31.4543054455  TIP3      5403            0.0000000000
     38462      5596  TIP3      OH2           -14.5763272818        2.2544072753      -32.8196788475  TIP3      5404            0.0000000000
     38463      5596  TIP3      H1            -14.7665677098        2.2672591410      -33.7884543468  TIP3      5404            0.0000000000
     38464      5596  TIP3      H2            -14.9881699884        1.3950708312      -32.5866593519  TIP3      5404            0.0000000000
     38465      5597  TIP3      OH2           -15.6140194719       16.1601263863      -36.6900415329  TIP3      5405            0.0000000000
     38466      5597  TIP3      H1            -16.4702681830       16.6128153706      -36.7221987956  TIP3      5405            0.0000000000
     38467      5597  TIP3      H2            -15.1373141066       16.6338348625      -37.3829637753  TIP3      5405            0.0000000000
     38468      5598  TIP3      OH2           -16.3009373965       18.7436792298      -25.4980244221  TIP3      5406            0.0000000000
     38469      5598  TIP3      H1            -15.8516903128       18.6340207023      -24.6506302762  TIP3      5406            0.0000000000
     38470      5598  TIP3      H2            -16.8687338286       17.9728943392      -25.5674110595  TIP3      5406            0.0000000000
     38471      5599  TIP3      OH2           -11.7808725546       17.7052695388      -23.8091836439  TIP3      5407            0.0000000000
     38472      5599  TIP3      H1            -11.0117535165       17.2357467365      -23.4515662725  TIP3      5407            0.0000000000
     38473      5599  TIP3      H2            -11.7720741987       17.4420563287      -24.7449785896  TIP3      5407            0.0000000000
     38474      5600  TIP3      OH2            -7.2429908255       17.3010283654      -41.8216103626  TIP3      5408            0.0000000000
     38475      5600  TIP3      H1             -8.0798170265       16.8096260062      -41.9145401747  TIP3      5408            0.0000000000
     38476      5600  TIP3      H2             -6.7480583462       16.8366008956      -42.4987185311  TIP3      5408            0.0000000000
     38477      5601  TIP3      OH2            -5.2105662164       16.1286890676      -25.0590934090  TIP3      5409            0.0000000000
     38478      5601  TIP3      H1             -5.5534020120       15.2408750534      -24.8115357902  TIP3      5409            0.0000000000
     38479      5601  TIP3      H2             -4.4447049659       16.2075686397      -24.4927191255  TIP3      5409            0.0000000000
     38480      5602  TIP3      OH2            -3.0275187232       17.0208755534      -42.1904874064  TIP3      5410            0.0000000000
     38481      5602  TIP3      H1             -2.7734307717       16.2093253937      -41.7110251254  TIP3      5410            0.0000000000
     38482      5602  TIP3      H2             -2.2509107509       17.2226696796      -42.7263624255  TIP3      5410            0.0000000000
     38483      5603  TIP3      OH2           -12.0882655978       12.9823282564      -42.2623986404  TIP3      5411            0.0000000000
     38484      5603  TIP3      H1            -11.9918045866       12.1721585531      -41.7614410574  TIP3      5411            0.0000000000
     38485      5603  TIP3      H2            -11.4858902478       12.7913160640      -43.0048021321  TIP3      5411            0.0000000000
     38486      5604  TIP3      OH2            -9.7691155682       12.5720713394      -25.0310386490  TIP3      5412            0.0000000000
     38487      5604  TIP3      H1            -10.1179800800       12.8885272236      -25.8851312531  TIP3      5412            0.0000000000
     38488      5604  TIP3      H2             -9.7148584965       11.5950979464      -25.1330521660  TIP3      5412            0.0000000000
     38489      5605  TIP3      OH2            -4.0848876626       12.4441694796      -27.6178564831  TIP3      5413            0.0000000000
     38490      5605  TIP3      H1             -3.3008969201       13.0273440443      -27.7042283538  TIP3      5413            0.0000000000
     38491      5605  TIP3      H2             -4.7952544566       13.0998265881      -27.5950170571  TIP3      5413            0.0000000000
     38492      5606  TIP3      OH2           -10.9529563528       10.9563161313      -39.9804912261  TIP3      5414            0.0000000000
     38493      5606  TIP3      H1            -11.4285440980       10.4360232912      -39.3137554427  TIP3      5414            0.0000000000
     38494      5606  TIP3      H2            -10.6167484277       10.2618813597      -40.5894018976  TIP3      5414            0.0000000000
     38495      5607  TIP3      OH2           -11.6660574555        8.7542048861      -27.6558004131  TIP3      5415            0.0000000000
     38496      5607  TIP3      H1            -12.2681695992        9.4712146764      -27.4029113618  TIP3      5415            0.0000000000
     38497      5607  TIP3      H2            -11.2926736642        9.1101665313      -28.4825682924  TIP3      5415            0.0000000000
     38498      5608  TIP3      OH2            -9.8762031786        9.1645132654      -41.7676391566  TIP3      5416            0.0000000000
     38499      5608  TIP3      H1             -9.9720831177        9.0029887070      -42.7115999644  TIP3      5416            0.0000000000
     38500      5608  TIP3      H2             -8.9045747918        9.2764200974      -41.6290359882  TIP3      5416            0.0000000000
     38501      5609  TIP3      OH2            -6.5946036433       11.3700426605      -24.3572890614  TIP3      5417            0.0000000000
     38502      5609  TIP3      H1             -5.6329946719       11.3430626342      -24.4421332945  TIP3      5417            0.0000000000
     38503      5609  TIP3      H2             -6.7921687481       10.6256467230      -23.7920445575  TIP3      5417            0.0000000000
     38504      5610  TIP3      OH2            -0.6740614616       11.6157020065       42.7515076777  TIP3      5418            0.0000000000
     38505      5610  TIP3      H1             -0.7825734955       11.1216618773       41.9220781933  TIP3      5418            0.0000000000
     38506      5610  TIP3      H2             -0.4621493385       12.5185621837       42.4817271277  TIP3      5418            0.0000000000
     38507      5611  TIP3      OH2           -11.2829355941        6.1642760294      -26.5924557798  TIP3      5419            0.0000000000
     38508      5611  TIP3      H1            -11.1843023423        5.4388890496      -27.2450685203  TIP3      5419            0.0000000000
     38509      5611  TIP3      H2            -11.3208538800        6.9518837606      -27.1741620424  TIP3      5419            0.0000000000
     38510      5612  TIP3      OH2           -10.8694313565        4.5185023392      -29.0486416827  TIP3      5420            0.0000000000
     38511      5612  TIP3      H1            -10.3601340639        4.9748252465      -29.7554308141  TIP3      5420            0.0000000000
     38512      5612  TIP3      H2            -11.7653015623        4.4311098062      -29.4457316330  TIP3      5420            0.0000000000
     38513      5613  TIP3      OH2            -9.3280327213        9.9960102270      -28.7884074598  TIP3      5421            0.0000000000
     38514      5613  TIP3      H1             -8.5817146613        9.8324352894      -29.3759723322  TIP3      5421            0.0000000000
     38515      5613  TIP3      H2             -9.6939226760       10.8290173748      -29.1299531795  TIP3      5421            0.0000000000
     38516      5614  TIP3      OH2            -3.6198641224       10.5692303298      -25.7111278330  TIP3      5422            0.0000000000
     38517      5614  TIP3      H1             -3.8363391882       11.2965283737      -26.3318008460  TIP3      5422            0.0000000000
     38518      5614  TIP3      H2             -2.6544627865       10.5034618381      -25.8699212365  TIP3      5422            0.0000000000
     38519      5615  TIP3      OH2           -12.8063576824        7.3384836273      -24.6176539383  TIP3      5423            0.0000000000
     38520      5615  TIP3      H1            -13.5672053328        6.8220011633      -24.9231520235  TIP3      5423            0.0000000000
     38521      5615  TIP3      H2            -12.1548243663        7.0160955958      -25.2772477165  TIP3      5423            0.0000000000
     38522      5616  TIP3      OH2           -10.0933425764        1.9514547250      -28.6634799261  TIP3      5424            0.0000000000
     38523      5616  TIP3      H1            -10.2592578307        2.9145335935      -28.7637883830  TIP3      5424            0.0000000000
     38524      5616  TIP3      H2            -10.8453713005        1.5884694346      -29.1618546450  TIP3      5424            0.0000000000
     38525      5617  TIP3      OH2            -8.8076019025        6.2037309213      -25.0538818783  TIP3      5425            0.0000000000
     38526      5617  TIP3      H1             -9.1559322798        5.9992931602      -24.1811211829  TIP3      5425            0.0000000000
     38527      5617  TIP3      H2             -9.6122939097        6.0873585759      -25.6157583769  TIP3      5425            0.0000000000
     38528      5618  TIP3      OH2            -6.1158686275        5.3955287255      -25.9545798809  TIP3      5426            0.0000000000
     38529      5618  TIP3      H1             -7.0839626141        5.4647453362      -25.8660538600  TIP3      5426            0.0000000000
     38530      5618  TIP3      H2             -5.8537211269        4.7623455454      -25.2823016166  TIP3      5426            0.0000000000
     38531      5619  TIP3      OH2           -14.6948813704        5.3063546772      -24.9011644336  TIP3      5427            0.0000000000
     38532      5619  TIP3      H1            -14.4482016512        4.6354276847      -25.5837642274  TIP3      5427            0.0000000000
     38533      5619  TIP3      H2            -14.7792784823        4.6908676336      -24.1846351083  TIP3      5427            0.0000000000
     38534      5620  TIP3      OH2            -9.8505469832        1.3348393702      -25.9479606433  TIP3      5428            0.0000000000
     38535      5620  TIP3      H1             -9.1793592878        0.6357405487      -25.9738050676  TIP3      5428            0.0000000000
     38536      5620  TIP3      H2            -10.0072385591        1.5072117504      -26.8925298599  TIP3      5428            0.0000000000
     38537      5621  TIP3      OH2           -10.0356781052       19.8613928387      -40.7432362801  TIP3      5429            0.0000000000
     38538      5621  TIP3      H1             -9.0649663110       19.9685547901      -40.6085076291  TIP3      5429            0.0000000000
     38539      5621  TIP3      H2            -10.2130491522       20.5371607883      -41.3950676670  TIP3      5429            0.0000000000
     38540      5622  TIP3      OH2           -16.4636872770       14.4685981615      -41.2032173819  TIP3      5430            0.0000000000
     38541      5622  TIP3      H1            -15.5017035101       14.5490413091      -40.9951323235  TIP3      5430            0.0000000000
     38542      5622  TIP3      H2            -16.4438878339       13.8790029773      -41.9594273365  TIP3      5430            0.0000000000
     38543      5623  TIP3      OH2           -17.7100995544       19.8355651449      -36.2364217156  TIP3      5431            0.0000000000
     38544      5623  TIP3      H1            -18.4238857659       19.3503458989      -36.7058955954  TIP3      5431            0.0000000000
     38545      5623  TIP3      H2            -17.4245877525       19.1761874161      -35.5785604780  TIP3      5431            0.0000000000
     38546      5624  TIP3      OH2           -16.8846367501       17.9643974036      -34.3699420652  TIP3      5432            0.0000000000
     38547      5624  TIP3      H1            -17.2362180509       17.0857526274      -34.1686214800  TIP3      5432            0.0000000000
     38548      5624  TIP3      H2            -16.6601215372       18.2949048616      -33.4837350236  TIP3      5432            0.0000000000
     38549      5625  TIP3      OH2             0.6526383579       18.7615771717      -31.4325216023  TIP3      5433            0.0000000000
     38550      5625  TIP3      H1              0.6804627809       18.9259092985      -30.4730551362  TIP3      5433            0.0000000000
     38551      5625  TIP3      H2              1.3573118325       19.3425658538      -31.7378040287  TIP3      5433            0.0000000000
     38552      5626  TIP3      OH2             0.2356443327       18.3617634910      -28.5022675291  TIP3      5434            0.0000000000
     38553      5626  TIP3      H1             -0.2499663612       17.5893754744      -28.8617175072  TIP3      5434            0.0000000000
     38554      5626  TIP3      H2              0.7354968525       17.9200240117      -27.7973354757  TIP3      5434            0.0000000000
     38555      5627  TIP3      OH2            -1.2717913979       14.0804979253      -23.7963542202  TIP3      5435            0.0000000000
     38556      5627  TIP3      H1             -2.1825890660       14.0089366371      -23.4618506404  TIP3      5435            0.0000000000
     38557      5627  TIP3      H2             -1.0058641313       14.9222991450      -23.4325847919  TIP3      5435            0.0000000000
     38558      5628  TIP3      OH2            -0.0010698783       12.4003839321      -38.3885629955  TIP3      5436            0.0000000000
     38559      5628  TIP3      H1              0.8496223093       12.8113541921      -38.1757427412  TIP3      5436            0.0000000000
     38560      5628  TIP3      H2             -0.0279905428       11.6873994221      -37.7117199266  TIP3      5436            0.0000000000
     38561      5629  TIP3      OH2             0.3450599218       10.4816194841      -36.5080779296  TIP3      5437            0.0000000000
     38562      5629  TIP3      H1             -0.4007830235        9.9718976148      -36.1196898473  TIP3      5437            0.0000000000
     38563      5629  TIP3      H2              0.9437868530       10.6175435843      -35.7432176667  TIP3      5437            0.0000000000
     38564      5630  TIP3      OH2             0.1059673773       13.1782816707      -31.5219686605  TIP3      5438            0.0000000000
     38565      5630  TIP3      H1              0.9251835161       12.8052060335      -31.8948221389  TIP3      5438            0.0000000000
     38566      5630  TIP3      H2              0.2497958915       14.1342926376      -31.6884672842  TIP3      5438            0.0000000000
     38567      5631  TIP3      OH2            -1.3351530900       16.0816318306      -29.2530222724  TIP3      5439            0.0000000000
     38568      5631  TIP3      H1             -2.0238579581       16.4219353646      -28.6578312502  TIP3      5439            0.0000000000
     38569      5631  TIP3      H2             -1.8885336288       15.6789473099      -29.9560159500  TIP3      5439            0.0000000000
     38570      5632  TIP3      OH2             0.6389974235       10.2987107877      -40.1324562385  TIP3      5440            0.0000000000
     38571      5632  TIP3      H1              0.0580404764       10.6679767147      -40.8218739807  TIP3      5440            0.0000000000
     38572      5632  TIP3      H2              0.5734468314       11.0026512720      -39.4552294009  TIP3      5440            0.0000000000
     38573      5633  TIP3      OH2            -1.3597373495        7.5711472896      -41.5008985564  TIP3      5441            0.0000000000
     38574      5633  TIP3      H1             -0.8942090462        8.1603430267      -42.1209663544  TIP3      5441            0.0000000000
     38575      5633  TIP3      H2             -1.1549206966        6.7278238094      -41.9535003440  TIP3      5441            0.0000000000
     38576      5634  TIP3      OH2            -1.8329689855        8.9581932614      -35.9324574198  TIP3      5442            0.0000000000
     38577      5634  TIP3      H1             -1.9827462436        8.0019477390      -35.9721002392  TIP3      5442            0.0000000000
     38578      5634  TIP3      H2             -2.1654434163        9.1773726509      -35.0428200217  TIP3      5442            0.0000000000
     38579      5635  TIP3      OH2           -16.8297991376       11.0719492134      -31.8741183874  TIP3      5443            0.0000000000
     38580      5635  TIP3      H1            -16.6537743400       10.9609267658      -32.8308321796  TIP3      5443            0.0000000000
     38581      5635  TIP3      H2            -15.9483551554       10.8708906391      -31.5042390317  TIP3      5443            0.0000000000
     38582      5636  TIP3      OH2            -1.0064476016       10.9365022286      -26.2890252398  TIP3      5444            0.0000000000
     38583      5636  TIP3      H1             -0.3938964034       10.1844543410      -26.0952254265  TIP3      5444            0.0000000000
     38584      5636  TIP3      H2             -0.3850504697       11.6881288251      -26.2882631817  TIP3      5444            0.0000000000
     38585      5637  TIP3      OH2             0.5336929345        8.8221492142      -25.7369785145  TIP3      5445            0.0000000000
     38586      5637  TIP3      H1             -0.3549763803        8.4039257074      -25.7019821182  TIP3      5445            0.0000000000
     38587      5637  TIP3      H2              1.0867690439        8.0354207026      -25.6181604354  TIP3      5445            0.0000000000
     38588      5638  TIP3      OH2            -1.7526899361        4.9641419232      -42.4872652798  TIP3      5446            0.0000000000
     38589      5638  TIP3      H1             -1.1543157403        4.5581368209      -41.8291037807  TIP3      5446            0.0000000000
     38590      5638  TIP3      H2             -2.6128476903        4.5812364760      -42.2672594660  TIP3      5446            0.0000000000
     38591      5639  TIP3      OH2            -2.1641659876        6.5447871493      -37.4560907930  TIP3      5447            0.0000000000
     38592      5639  TIP3      H1             -1.8601774330        5.6129181324      -37.3487269832  TIP3      5447            0.0000000000
     38593      5639  TIP3      H2             -1.3844872329        6.9450051157      -37.8635690304  TIP3      5447            0.0000000000
     38594      5640  TIP3      OH2            -1.5271072432        7.0839810855      -32.0323823274  TIP3      5448            0.0000000000
     38595      5640  TIP3      H1             -0.5674545985        7.3168577714      -32.0456551135  TIP3      5448            0.0000000000
     38596      5640  TIP3      H2             -1.7173417716        7.2255321131      -31.0925712440  TIP3      5448            0.0000000000
     38597      5641  TIP3      OH2            -1.4655588747        7.8116119665      -29.2699928368  TIP3      5449            0.0000000000
     38598      5641  TIP3      H1             -2.3328012927        8.0959453280      -28.9104167178  TIP3      5449            0.0000000000
     38599      5641  TIP3      H2             -1.0263075929        8.6703790028      -29.4736684326  TIP3      5449            0.0000000000
     38600      5642  TIP3      OH2           -17.2168414586        6.2773303150      -25.6947160846  TIP3      5450            0.0000000000
     38601      5642  TIP3      H1            -16.2626203485        6.1333271465      -25.5773589141  TIP3      5450            0.0000000000
     38602      5642  TIP3      H2            -17.6603447347        5.4859560992      -25.4016154851  TIP3      5450            0.0000000000
     38603      5643  TIP3      OH2             0.8080157899        1.7975222102      -23.9511693882  TIP3      5451            0.0000000000
     38604      5643  TIP3      H1              1.1688322324        1.1693607118      -24.5807885179  TIP3      5451            0.0000000000
     38605      5643  TIP3      H2              0.9022680335        2.6616690772      -24.3873198588  TIP3      5451            0.0000000000
     38606      5644  TIP3      OH2            -1.5197957818        3.8215442333      -37.4234629243  TIP3      5452            0.0000000000
     38607      5644  TIP3      H1             -1.2905172246        3.3798498614      -36.5767547218  TIP3      5452            0.0000000000
     38608      5644  TIP3      H2             -2.0903744087        3.1744432899      -37.8786622037  TIP3      5452            0.0000000000
     38609      5645  TIP3      OH2           -16.0098981286        4.6338866708      -32.8717757961  TIP3      5453            0.0000000000
     38610      5645  TIP3      H1            -15.5464427404        3.8109026477      -32.6084798826  TIP3      5453            0.0000000000
     38611      5645  TIP3      H2            -15.4763543631        5.3335248865      -32.4709347046  TIP3      5453            0.0000000000
     38612      5646  TIP3      OH2           -17.7089997707        7.6122874812      -31.8311496290  TIP3      5454            0.0000000000
     38613      5646  TIP3      H1            -17.1561837089        7.4069976251      -32.6050113102  TIP3      5454            0.0000000000
     38614      5646  TIP3      H2            -17.3001399600        8.4453699481      -31.5371144363  TIP3      5454            0.0000000000
     38615      5647  TIP3      OH2             0.3415083705        3.9687989352      -25.5616923798  TIP3      5455            0.0000000000
     38616      5647  TIP3      H1             -0.6022472355        4.2113384917      -25.5839565602  TIP3      5455            0.0000000000
     38617      5647  TIP3      H2              0.3995442014        3.4227828632      -26.3515351651  TIP3      5455            0.0000000000
     38618      5648  TIP3      OH2             0.3198008909        3.8834568061      -40.8686940379  TIP3      5456            0.0000000000
     38619      5648  TIP3      H1              0.7529704041        3.1702794695      -41.3664038013  TIP3      5456            0.0000000000
     38620      5648  TIP3      H2              1.0449347270        4.5324177317      -40.8461199727  TIP3      5456            0.0000000000
     38621      5649  TIP3      OH2           -17.3585527103        3.9068611049      -37.7492300334  TIP3      5457            0.0000000000
     38622      5649  TIP3      H1            -18.3039091014        4.0625500651      -37.8940566735  TIP3      5457            0.0000000000
     38623      5649  TIP3      H2            -16.9415054873        4.3659516343      -38.4940675902  TIP3      5457            0.0000000000
     38624      5650  TIP3      OH2            -2.6259930472       18.8426208147      -35.8045437193  TIP3      5458            0.0000000000
     38625      5650  TIP3      H1             -1.9433614413       18.5372672852      -36.4282417216  TIP3      5458            0.0000000000
     38626      5650  TIP3      H2             -2.1057932798       19.3426495151      -35.1594347092  TIP3      5458            0.0000000000
     38627      5651  TIP3      OH2           -17.4042740968        2.5647685204      -29.4454504076  TIP3      5459            0.0000000000
     38628      5651  TIP3      H1            -18.0803528244        2.3587321515      -28.7766125033  TIP3      5459            0.0000000000
     38629      5651  TIP3      H2            -17.8701170677        3.2233529958      -30.0019378742  TIP3      5459            0.0000000000
     38630      5652  TIP3      OH2           -15.2014045692       15.7243350504      -25.2795290481  TIP3      5460            0.0000000000
     38631      5652  TIP3      H1            -16.0360948476       15.9796119420      -25.7095374170  TIP3      5460            0.0000000000
     38632      5652  TIP3      H2            -15.4357999048       15.7083973855      -24.3522580113  TIP3      5460            0.0000000000
     38633      5653  TIP3      OH2           -12.2777439102       16.7511010609      -29.0258754621  TIP3      5461            0.0000000000
     38634      5653  TIP3      H1            -12.6151362999       17.6148604335      -29.2971298334  TIP3      5461            0.0000000000
     38635      5653  TIP3      H2            -11.3499052670       16.8412399505      -29.3284464864  TIP3      5461            0.0000000000
     38636      5654  TIP3      OH2            -7.9314324400       18.1504154771      -26.1211202293  TIP3      5462            0.0000000000
     38637      5654  TIP3      H1             -7.7918594587       17.8560096763      -25.1835121100  TIP3      5462            0.0000000000
     38638      5654  TIP3      H2             -7.0473982048       18.4920366068      -26.3640507187  TIP3      5462            0.0000000000
     38639      5655  TIP3      OH2            -5.6589602693       19.4390099515      -26.8223645063  TIP3      5463            0.0000000000
     38640      5655  TIP3      H1             -4.9276567981       18.8473830029      -27.0523237266  TIP3      5463            0.0000000000
     38641      5655  TIP3      H2             -5.2852779997       19.8682328819      -26.0216941101  TIP3      5463            0.0000000000
     38642      5656  TIP3      OH2            -0.6430272883        2.0712957104      -27.7236093711  TIP3      5464            0.0000000000
     38643      5656  TIP3      H1             -1.4845921805        2.3431197887      -28.1239809467  TIP3      5464            0.0000000000
     38644      5656  TIP3      H2             -0.4654439507        1.2459058211      -28.2216148069  TIP3      5464            0.0000000000
     38645      5657  TIP3      OH2           -14.8492027716       19.9880755340      -29.0323489036  TIP3      5465            0.0000000000
     38646      5657  TIP3      H1            -15.5875558110       20.4874946371      -29.4142896652  TIP3      5465            0.0000000000
     38647      5657  TIP3      H2            -15.1608383199       19.8043924509      -28.1291114286  TIP3      5465            0.0000000000
     38648      5658  TIP3      OH2           -12.3761861405       19.5698523708      -29.9558104353  TIP3      5466            0.0000000000
     38649      5658  TIP3      H1            -13.2707363438       19.7132481420      -29.5589905605  TIP3      5466            0.0000000000
     38650      5658  TIP3      H2            -12.4390083060       20.1590736696      -30.7284978222  TIP3      5466            0.0000000000
     38651      5659  TIP3      OH2            -7.6739480470       19.4816145715      -30.7817658154  TIP3      5467            0.0000000000
     38652      5659  TIP3      H1             -8.1365379110       20.0370592135      -31.4308839191  TIP3      5467            0.0000000000
     38653      5659  TIP3      H2             -7.5381749279       20.1165702490      -30.0449487579  TIP3      5467            0.0000000000
     38654      5660  TIP3      OH2            -5.3792511203       18.2974791153      -29.7662870949  TIP3      5468            0.0000000000
     38655      5660  TIP3      H1             -6.2417724602       18.5658166889      -30.1220663612  TIP3      5468            0.0000000000
     38656      5660  TIP3      H2             -4.9055823335       19.1426033839      -29.8563535403  TIP3      5468            0.0000000000
     38657      5661  TIP3      OH2            -2.7959551771       19.8684990737      -29.5313886399  TIP3      5469            0.0000000000
     38658      5661  TIP3      H1             -2.8659883762       20.8265755675      -29.7616973465  TIP3      5469            0.0000000000
     38659      5661  TIP3      H2             -2.5851476901       19.4955876137      -30.4101622095  TIP3      5469            0.0000000000
     38660      5662  TIP3      OH2           -15.3978643839       18.6394161464      -32.0830953109  TIP3      5470            0.0000000000
     38661      5662  TIP3      H1            -15.4753777813       18.1818784230      -31.2172353162  TIP3      5470            0.0000000000
     38662      5662  TIP3      H2            -14.5819628186       18.2665692355      -32.4741344230  TIP3      5470            0.0000000000
     38663      5663  TIP3      OH2           -13.3150433289       17.3520141733      -33.4310740101  TIP3      5471            0.0000000000
     38664      5663  TIP3      H1            -13.4832676229       16.4179084790      -33.2043023471  TIP3      5471            0.0000000000
     38665      5663  TIP3      H2            -12.4604878486       17.5017042671      -32.9735092354  TIP3      5471            0.0000000000
     38666      5664  TIP3      OH2           -10.7144860664       17.8380565236      -32.5548020707  TIP3      5472            0.0000000000
     38667      5664  TIP3      H1            -10.5537932542       16.9145224055      -32.8205366353  TIP3      5472            0.0000000000
     38668      5664  TIP3      H2            -10.6699864260       17.7772960659      -31.5902264582  TIP3      5472            0.0000000000
     38669      5665  TIP3      OH2            -7.2700973465        3.4848826394      -33.4329324472  TIP3      5473            0.0000000000
     38670      5665  TIP3      H1             -7.9307187962        2.8403428190      -33.1232740272  TIP3      5473            0.0000000000
     38671      5665  TIP3      H2             -6.6907598881        2.9436980552      -33.9794417910  TIP3      5473            0.0000000000
     38672      5666  TIP3      OH2            -2.1242096473        1.5414951278      -33.3506096308  TIP3      5474            0.0000000000
     38673      5666  TIP3      H1             -1.5073666279        2.1292425964      -33.8558306563  TIP3      5474            0.0000000000
     38674      5666  TIP3      H2             -3.0039184928        1.8999981028      -33.5812770575  TIP3      5474            0.0000000000
     38675      5667  TIP3      OH2            -0.4494299538        2.7757008971      -35.0653951068  TIP3      5475            0.0000000000
     38676      5667  TIP3      H1              0.2364278084        2.2044076266      -35.4880936039  TIP3      5475            0.0000000000
     38677      5667  TIP3      H2              0.0499572789        3.6182853045      -34.9668045207  TIP3      5475            0.0000000000
     38678      5668  TIP3      OH2           -14.8840500822        2.1431768790      -35.5593609782  TIP3      5476            0.0000000000
     38679      5668  TIP3      H1            -15.6645759774        1.8829295289      -36.1020808383  TIP3      5476            0.0000000000
     38680      5668  TIP3      H2            -14.4363524904        1.2739395062      -35.6250423929  TIP3      5476            0.0000000000
     38681      5669  TIP3      OH2           -16.1734147856        1.8958586667      -39.8972336799  TIP3      5477            0.0000000000
     38682      5669  TIP3      H1            -15.6245852628        2.5224844612      -40.3924911993  TIP3      5477            0.0000000000
     38683      5669  TIP3      H2            -16.6789674427        2.4518061039      -39.2879790146  TIP3      5477            0.0000000000
     38684      5670  TIP3      OH2           -10.3759066365        2.0380443900      -35.8011442232  TIP3      5478            0.0000000000
     38685      5670  TIP3      H1             -9.4899428727        2.4238971894      -35.8051740030  TIP3      5478            0.0000000000
     38686      5670  TIP3      H2            -10.4763561755        1.8212167696      -34.8674437367  TIP3      5478            0.0000000000
     38687      5671  TIP3      OH2            -4.7393713506        2.0674264794      -34.1601432493  TIP3      5479            0.0000000000
     38688      5671  TIP3      H1             -4.7216340947        2.1541186584      -35.1155999560  TIP3      5479            0.0000000000
     38689      5671  TIP3      H2             -5.0712308070        1.1443358662      -34.0220840681  TIP3      5479            0.0000000000
     38690      5672  TIP3      OH2            -3.4354958821        2.0800366173      -38.4893271555  TIP3      5480            0.0000000000
     38691      5672  TIP3      H1             -4.1504877471        2.6931432687      -38.6680841148  TIP3      5480            0.0000000000
     38692      5672  TIP3      H2             -3.8605165622        1.2142361238      -38.2760925305  TIP3      5480            0.0000000000
     38693      5673  TIP3      OH2           -16.1935944612       17.8253703585      -38.8391252429  TIP3      5481            0.0000000000
     38694      5673  TIP3      H1            -16.8740819484       17.8227931261      -39.5397921875  TIP3      5481            0.0000000000
     38695      5673  TIP3      H2            -16.1763353656       18.7768686870      -38.6699941778  TIP3      5481            0.0000000000
     38696      5674  TIP3      OH2           -14.2815839066        3.7744129252      -41.3305042794  TIP3      5482            0.0000000000
     38697      5674  TIP3      H1            -13.7583720821        3.1716832211      -41.8621107570  TIP3      5482            0.0000000000
     38698      5674  TIP3      H2            -13.6262770225        4.1104598831      -40.6996939584  TIP3      5482            0.0000000000
     38699      5675  TIP3      OH2            -9.1352628043        4.0408434359      -38.9160152486  TIP3      5483            0.0000000000
     38700      5675  TIP3      H1             -9.1739300102        3.5024787979      -38.1165853687  TIP3      5483            0.0000000000
     38701      5675  TIP3      H2             -9.2351247936        4.9334824281      -38.4831585954  TIP3      5483            0.0000000000
     38702      5676  TIP3      OH2            -7.3719184844       19.3849840352      -40.4549365540  TIP3      5484            0.0000000000
     38703      5676  TIP3      H1             -6.4098791902       19.3994553931      -40.6249691034  TIP3      5484            0.0000000000
     38704      5676  TIP3      H2             -7.5398460355       18.6776344636      -41.1270897617  TIP3      5484            0.0000000000
     38705      5677  TIP3      OH2            -0.6272976452       18.6323387483      -37.7732314062  TIP3      5485            0.0000000000
     38706      5677  TIP3      H1             -0.8296511227       17.8537037595      -38.3496164575  TIP3      5485            0.0000000000
     38707      5677  TIP3      H2             -0.7111667422       19.3670133661      -38.4098429026  TIP3      5485            0.0000000000
     38708      5678  TIP3      OH2           -15.0372453387        2.7070515494      -26.0711506301  TIP3      5486            0.0000000000
     38709      5678  TIP3      H1            -15.3443100190        1.8596033241      -25.6960993199  TIP3      5486            0.0000000000
     38710      5678  TIP3      H2            -14.0856492345        2.6006304739      -25.7946560860  TIP3      5486            0.0000000000
     38711      5679  TIP3      OH2           -13.0544878876        1.9922879997      -24.5914074315  TIP3      5487            0.0000000000
     38712      5679  TIP3      H1            -12.1240370435        1.7210713725      -24.6957341468  TIP3      5487            0.0000000000
     38713      5679  TIP3      H2            -13.3671530436        1.2672965743      -24.0208766351  TIP3      5487            0.0000000000
     38714      5680  TIP3      OH2           -14.3711125932       18.7984337388      -41.8739392453  TIP3      5488            0.0000000000
     38715      5680  TIP3      H1            -14.6700132841       19.0663883194      -40.9962971030  TIP3      5488            0.0000000000
     38716      5680  TIP3      H2            -13.6130015116       18.2404917519      -41.7067802634  TIP3      5488            0.0000000000
     38717      5681  TIP3      OH2            -1.3928137651       17.3468784516      -25.6456449610  TIP3      5489            0.0000000000
     38718      5681  TIP3      H1             -2.1769882373       17.2322177712      -26.2217767808  TIP3      5489            0.0000000000
     38719      5681  TIP3      H2             -1.4870915124       18.3063020958      -25.4680792677  TIP3      5489            0.0000000000
     38720      5682  TIP3      OH2            13.0638116063       11.2618151369      -35.7223394032  TIP3      5490            0.0000000000
     38721      5682  TIP3      H1             13.0268896570       12.2428516622      -35.7341613936  TIP3      5490            0.0000000000
     38722      5682  TIP3      H2             12.3091557529       11.0198230055      -36.2883230312  TIP3      5490            0.0000000000
     38723      5683  TIP3      OH2            11.9024272969       10.5124080594      -32.2016630534  TIP3      5491            0.0000000000
     38724      5683  TIP3      H1             11.9001270963        9.8534202298      -31.4938666000  TIP3      5491            0.0000000000
     38725      5683  TIP3      H2             11.5746405104       10.0072736476      -32.9652823258  TIP3      5491            0.0000000000
     38726      5684  TIP3      OH2             4.2680770291       10.1779380327      -30.6563070525  TIP3      5492            0.0000000000
     38727      5684  TIP3      H1              4.3500408953        9.4973339513      -29.9551173147  TIP3      5492            0.0000000000
     38728      5684  TIP3      H2              5.0144300027       10.7533844956      -30.4356326805  TIP3      5492            0.0000000000
     38729      5685  TIP3      OH2            15.6002720844       13.4415652238      -33.9428685077  TIP3      5493            0.0000000000
     38730      5685  TIP3      H1             15.1899732417       12.7382869361      -33.4292827129  TIP3      5493            0.0000000000
     38731      5685  TIP3      H2             15.6277661405       14.1540466530      -33.2755995915  TIP3      5493            0.0000000000
     38732      5686  TIP3      OH2             5.1949884471       14.6292752360      -32.1532376128  TIP3      5494            0.0000000000
     38733      5686  TIP3      H1              4.8789094972       13.7627674315      -32.4746184661  TIP3      5494            0.0000000000
     38734      5686  TIP3      H2              6.1496368449       14.4413524514      -32.1031141366  TIP3      5494            0.0000000000
     38735      5687  TIP3      OH2             1.8348954935        8.1905741092      -36.6711285777  TIP3      5495            0.0000000000
     38736      5687  TIP3      H1              1.3955190624        9.0609373479      -36.7246080306  TIP3      5495            0.0000000000
     38737      5687  TIP3      H2              1.2697698024        7.6533800373      -37.2424589232  TIP3      5495            0.0000000000
     38738      5688  TIP3      OH2             2.5415297845       10.4131236851      -34.5267020211  TIP3      5496            0.0000000000
     38739      5688  TIP3      H1              2.8103208784        9.5949962684      -34.0685787887  TIP3      5496            0.0000000000
     38740      5688  TIP3      H2              3.2445560737       10.5150774720      -35.1859667074  TIP3      5496            0.0000000000
     38741      5689  TIP3      OH2            12.7225359338       18.6099624923      -33.6920521735  TIP3      5497            0.0000000000
     38742      5689  TIP3      H1             13.3686761502       17.9161476286      -33.9750018057  TIP3      5497            0.0000000000
     38743      5689  TIP3      H2             12.5106335078       18.2853870972      -32.8166828539  TIP3      5497            0.0000000000
     38744      5690  TIP3      OH2            10.2896753044       12.9108987288      -31.7482230969  TIP3      5498            0.0000000000
     38745      5690  TIP3      H1             10.6287924719       12.2772294008      -32.3987837486  TIP3      5498            0.0000000000
     38746      5690  TIP3      H2             11.0935237921       13.0642579371      -31.2218991566  TIP3      5498            0.0000000000
     38747      5691  TIP3      OH2            18.8926088539        4.5658890263      -31.0075337625  TIP3      5499            0.0000000000
     38748      5691  TIP3      H1             19.0622702853        5.1574198643      -30.2441333034  TIP3      5499            0.0000000000
     38749      5691  TIP3      H2             19.4500012909        4.9916593124      -31.6747664787  TIP3      5499            0.0000000000
     38750      5692  TIP3      OH2            13.4549784169        7.3778098953      -31.4355159107  TIP3      5500            0.0000000000
     38751      5692  TIP3      H1             13.6195744995        6.4181637540      -31.4313472343  TIP3      5500            0.0000000000
     38752      5692  TIP3      H2             13.3602814521        7.5249991380      -32.3990948711  TIP3      5500            0.0000000000
     38753      5693  TIP3      OH2             6.5730212169        5.4635617033      -34.2080416185  TIP3      5501            0.0000000000
     38754      5693  TIP3      H1              6.6741818372        6.3012191582      -34.6959106499  TIP3      5501            0.0000000000
     38755      5693  TIP3      H2              6.1693926912        4.8907961210      -34.8960198954  TIP3      5501            0.0000000000
     38756      5694  TIP3      OH2            14.3085839263        5.5403360341      -35.8351436523  TIP3      5502            0.0000000000
     38757      5694  TIP3      H1             14.9630017161        5.2268205604      -35.1679082192  TIP3      5502            0.0000000000
     38758      5694  TIP3      H2             14.8733428369        6.1011430309      -36.3894090431  TIP3      5502            0.0000000000
     38759      5695  TIP3      OH2             3.1969258312        7.8727396746      -33.4726837603  TIP3      5503            0.0000000000
     38760      5695  TIP3      H1              3.8681221212        7.3247580308      -33.0227253177  TIP3      5503            0.0000000000
     38761      5695  TIP3      H2              3.2957875983        7.5607588961      -34.3852355278  TIP3      5503            0.0000000000
     38762      5696  TIP3      OH2             8.3563257006        9.4299026697      -34.1656796534  TIP3      5504            0.0000000000
     38763      5696  TIP3      H1              9.0219348605        8.8496552319      -33.7587211611  TIP3      5504            0.0000000000
     38764      5696  TIP3      H2              7.8347805978        8.7695933246      -34.6628864156  TIP3      5504            0.0000000000
     38765      5697  TIP3      OH2            19.3380460130        5.9869083966      -28.7193082326  TIP3      5505            0.0000000000
     38766      5697  TIP3      H1             18.7177619394        6.7421080435      -28.8459678074  TIP3      5505            0.0000000000
     38767      5697  TIP3      H2             19.3642139748        5.8926535425      -27.7613382225  TIP3      5505            0.0000000000
     38768      5698  TIP3      OH2             5.4734573371        4.3627297523      -30.1669217773  TIP3      5506            0.0000000000
     38769      5698  TIP3      H1              5.1960523209        4.9312875668      -30.9152798770  TIP3      5506            0.0000000000
     38770      5698  TIP3      H2              4.7944387201        4.5942794420      -29.4871951449  TIP3      5506            0.0000000000
     38771      5699  TIP3      OH2            12.8005652001       13.8450612073      -36.6440958739  TIP3      5507            0.0000000000
     38772      5699  TIP3      H1             12.4588199224       13.5738367374      -37.5089147174  TIP3      5507            0.0000000000
     38773      5699  TIP3      H2             12.4597386117       14.7687640252      -36.5636397498  TIP3      5507            0.0000000000
     38774      5700  TIP3      OH2             7.9941292212       12.0072354144      -29.9239734623  TIP3      5508            0.0000000000
     38775      5700  TIP3      H1              7.2857258424       12.6519488559      -29.7130274242  TIP3      5508            0.0000000000
     38776      5700  TIP3      H2              8.7016073379       12.6052473916      -30.2127144184  TIP3      5508            0.0000000000
     38777      5701  TIP3      OH2            16.1148197206        4.8848455390      -33.8435935625  TIP3      5509            0.0000000000
     38778      5701  TIP3      H1             15.8947676229        4.1158803013      -33.3081869022  TIP3      5509            0.0000000000
     38779      5701  TIP3      H2             16.7848083356        5.3243920672      -33.2923309002  TIP3      5509            0.0000000000
     38780      5702  TIP3      OH2             5.0393048020        6.2264768611      -32.1430005565  TIP3      5510            0.0000000000
     38781      5702  TIP3      H1              5.6722981149        6.9079680505      -31.8232426356  TIP3      5510            0.0000000000
     38782      5702  TIP3      H2              5.5602169632        5.8052550949      -32.8717136641  TIP3      5510            0.0000000000
     38783      5703  TIP3      OH2             6.4374647895       14.0080846540      -29.1030838175  TIP3      5511            0.0000000000
     38784      5703  TIP3      H1              6.3903159326       14.9192327485      -29.4460771819  TIP3      5511            0.0000000000
     38785      5703  TIP3      H2              5.5542251895       13.9296637542      -28.6626870629  TIP3      5511            0.0000000000
     38786      5704  TIP3      OH2             2.5024271180       13.6265228432      -38.3189601813  TIP3      5512            0.0000000000
     38787      5704  TIP3      H1              2.2912589467       13.9586324546      -39.2131005783  TIP3      5512            0.0000000000
     38788      5704  TIP3      H2              2.5830348547       14.4605472972      -37.8073112057  TIP3      5512            0.0000000000
     38789      5705  TIP3      OH2            16.1322967617       15.2917472522      -31.5585798394  TIP3      5513            0.0000000000
     38790      5705  TIP3      H1             15.1642752562       15.3994374835      -31.4359386094  TIP3      5513            0.0000000000
     38791      5705  TIP3      H2             16.4007299619       16.2091401535      -31.7549718598  TIP3      5513            0.0000000000
     38792      5706  TIP3      OH2            16.4520522308        3.5865142714      -30.1639664991  TIP3      5514            0.0000000000
     38793      5706  TIP3      H1             15.7253053360        4.2148126066      -30.2579735376  TIP3      5514            0.0000000000
     38794      5706  TIP3      H2             17.1659750587        3.9964439982      -30.6915873913  TIP3      5514            0.0000000000
     38795      5707  TIP3      OH2             9.4226916025        1.6972341657      -32.7126763027  TIP3      5515            0.0000000000
     38796      5707  TIP3      H1              9.2913850354        0.7319946919      -32.7715100459  TIP3      5515            0.0000000000
     38797      5707  TIP3      H2              8.5493636120        1.9975937802      -32.3934326807  TIP3      5515            0.0000000000
     38798      5708  TIP3      OH2            14.3899324892       17.0661496477      -34.9735754702  TIP3      5516            0.0000000000
     38799      5708  TIP3      H1             14.8226691387       16.3501170791      -35.4789636164  TIP3      5516            0.0000000000
     38800      5708  TIP3      H2             14.8161446236       17.8541104837      -35.3676352978  TIP3      5516            0.0000000000
     38801      5709  TIP3      OH2            15.6190105194       14.9937662003      -36.4589630668  TIP3      5517            0.0000000000
     38802      5709  TIP3      H1             15.2845384423       14.3231471098      -37.0678178738  TIP3      5517            0.0000000000
     38803      5709  TIP3      H2             15.6223465706       14.5211585752      -35.6047425442  TIP3      5517            0.0000000000
     38804      5710  TIP3      OH2            17.2351475960       13.5988347951      -27.9618855417  TIP3      5518            0.0000000000
     38805      5710  TIP3      H1             17.3668167803       12.9478402902      -28.6850836263  TIP3      5518            0.0000000000
     38806      5710  TIP3      H2             17.4221497808       14.4472019419      -28.3985855553  TIP3      5518            0.0000000000
     38807      5711  TIP3      OH2            11.7220155928       10.5111153775      -38.2007814588  TIP3      5519            0.0000000000
     38808      5711  TIP3      H1             11.0003365537       11.0568482891      -38.5788201471  TIP3      5519            0.0000000000
     38809      5711  TIP3      H2             12.3956225521       10.5803493502      -38.8933797797  TIP3      5519            0.0000000000
     38810      5712  TIP3      OH2            11.7663082595        9.0330735980      -41.1262101962  TIP3      5520            0.0000000000
     38811      5712  TIP3      H1             12.4843511819        8.9965563563      -40.4817988250  TIP3      5520            0.0000000000
     38812      5712  TIP3      H2             12.0589275250        8.3721041669      -41.7633348991  TIP3      5520            0.0000000000
     38813      5713  TIP3      OH2            19.1014954324        9.9035406148      -29.9255681189  TIP3      5521            0.0000000000
     38814      5713  TIP3      H1             18.4432964569       10.6264886441      -29.8660719804  TIP3      5521            0.0000000000
     38815      5713  TIP3      H2             19.5952449260       10.1454274624      -30.7313732586  TIP3      5521            0.0000000000
     38816      5714  TIP3      OH2            15.1218796639       10.6532272683      -37.1916742447  TIP3      5522            0.0000000000
     38817      5714  TIP3      H1             14.3643832765       10.8954692382      -36.5742155370  TIP3      5522            0.0000000000
     38818      5714  TIP3      H2             15.5884896199        9.9891063947      -36.6368154519  TIP3      5522            0.0000000000
     38819      5715  TIP3      OH2            15.0840127181        8.8655535704      -28.1666687072  TIP3      5523            0.0000000000
     38820      5715  TIP3      H1             15.0931311536        9.6775665579      -27.6238547902  TIP3      5523            0.0000000000
     38821      5715  TIP3      H2             14.4510730635        9.1627711935      -28.8486086110  TIP3      5523            0.0000000000
     38822      5716  TIP3      OH2             6.7729446247       11.3594491194      -35.3579900011  TIP3      5524            0.0000000000
     38823      5716  TIP3      H1              6.4511173086       10.9671740137      -36.2042357391  TIP3      5524            0.0000000000
     38824      5716  TIP3      H2              7.3856206774       10.6670914684      -35.0218063941  TIP3      5524            0.0000000000
     38825      5717  TIP3      OH2             8.0962298548       14.7481186506      -32.6745182820  TIP3      5525            0.0000000000
     38826      5717  TIP3      H1              8.0806410028       14.2137321621      -33.4770831993  TIP3      5525            0.0000000000
     38827      5717  TIP3      H2              8.8766924528       14.3886523141      -32.2135317551  TIP3      5525            0.0000000000
     38828      5718  TIP3      OH2             7.1061177666       10.1048552247      -31.6982902753  TIP3      5526            0.0000000000
     38829      5718  TIP3      H1              7.6591699473       10.2098344808      -32.4971422682  TIP3      5526            0.0000000000
     38830      5718  TIP3      H2              7.4895321295       10.7696253837      -31.0849350609  TIP3      5526            0.0000000000
     38831      5719  TIP3      OH2            13.5144361720       15.6737827959      -30.9908887802  TIP3      5527            0.0000000000
     38832      5719  TIP3      H1             13.2284179448       16.3089415641      -30.3284293135  TIP3      5527            0.0000000000
     38833      5719  TIP3      H2             13.2600229386       14.8191085439      -30.5674866631  TIP3      5527            0.0000000000
     38834      5720  TIP3      OH2             8.0496095584       14.5217171119      -26.9781070892  TIP3      5528            0.0000000000
     38835      5720  TIP3      H1              7.6610031707       15.2787679129      -26.5003023199  TIP3      5528            0.0000000000
     38836      5720  TIP3      H2              7.3798592078       14.3393629084      -27.6786364840  TIP3      5528            0.0000000000
     38837      5721  TIP3      OH2            14.0449645784        9.8821546237      -39.6068785722  TIP3      5529            0.0000000000
     38838      5721  TIP3      H1             14.4975634493       10.0234291382      -38.7484640212  TIP3      5529            0.0000000000
     38839      5721  TIP3      H2             14.4069371027       10.4138768213      -40.3415848508  TIP3      5529            0.0000000000
     38840      5722  TIP3      OH2             4.9967901637       10.7145279345      -27.8286038311  TIP3      5530            0.0000000000
     38841      5722  TIP3      H1              5.0321234566       11.3629544110      -27.0947185844  TIP3      5530            0.0000000000
     38842      5722  TIP3      H2              4.0580520927       10.7945551512      -28.0572104136  TIP3      5530            0.0000000000
     38843      5723  TIP3      OH2            11.7428527735       16.6118406580      -36.1219826928  TIP3      5531            0.0000000000
     38844      5723  TIP3      H1             12.1852477346       16.9323977923      -35.3282986247  TIP3      5531            0.0000000000
     38845      5723  TIP3      H2             11.1916167078       17.3629782025      -36.3800567364  TIP3      5531            0.0000000000
     38846      5724  TIP3      OH2             6.2966633888       16.5588412461      -26.2411887498  TIP3      5532            0.0000000000
     38847      5724  TIP3      H1              6.2558055038       16.4576712061      -27.2059374213  TIP3      5532            0.0000000000
     38848      5724  TIP3      H2              5.3652432635       16.4267610461      -25.9839347504  TIP3      5532            0.0000000000
     38849      5725  TIP3      OH2            17.7616436764        1.6289680650      -39.7255472857  TIP3      5533            0.0000000000
     38850      5725  TIP3      H1             16.8137440615        1.7401533547      -39.4831686291  TIP3      5533            0.0000000000
     38851      5725  TIP3      H2             17.9737276224        2.4860508757      -40.1265038005  TIP3      5533            0.0000000000
     38852      5726  TIP3      OH2             5.7417944561       10.3877846937      -37.7431398235  TIP3      5534            0.0000000000
     38853      5726  TIP3      H1              5.4617071225       11.1620254228      -38.2708971662  TIP3      5534            0.0000000000
     38854      5726  TIP3      H2              5.0877604893        9.7219373761      -37.9735436834  TIP3      5534            0.0000000000
     38855      5727  TIP3      OH2            18.8613555640       15.9623749831      -41.3343352001  TIP3      5535            0.0000000000
     38856      5727  TIP3      H1             18.9865491801       16.9218713200      -41.2151569242  TIP3      5535            0.0000000000
     38857      5727  TIP3      H2             19.7916334297       15.6858587576      -41.4081383267  TIP3      5535            0.0000000000
     38858      5728  TIP3      OH2             1.8304164792       12.8072897726      -28.8593675493  TIP3      5536            0.0000000000
     38859      5728  TIP3      H1              1.3783276704       12.7245142692      -29.7174352290  TIP3      5536            0.0000000000
     38860      5728  TIP3      H2              1.9050548178       11.8623131674      -28.6279356752  TIP3      5536            0.0000000000
     38861      5729  TIP3      OH2             1.5942599940       15.5452597513      -32.0679396267  TIP3      5537            0.0000000000
     38862      5729  TIP3      H1              2.5529544768       15.4274756703      -32.0928276771  TIP3      5537            0.0000000000
     38863      5729  TIP3      H2              1.5102403769       16.3607291119      -31.5586530546  TIP3      5537            0.0000000000
     38864      5730  TIP3      OH2            19.8202187845       16.2458437451      -26.4362111579  TIP3      5538            0.0000000000
     38865      5730  TIP3      H1             19.7228557187       15.2801132440      -26.3824799186  TIP3      5538            0.0000000000
     38866      5730  TIP3      H2             18.9722519400       16.4946248491      -25.9952533687  TIP3      5538            0.0000000000
     38867      5731  TIP3      OH2            10.7862230650       15.8062518889      -27.5364775593  TIP3      5539            0.0000000000
     38868      5731  TIP3      H1             10.8574486863       16.6250238152      -26.9844910644  TIP3      5539            0.0000000000
     38869      5731  TIP3      H2              9.9345028838       15.4331745291      -27.2450886186  TIP3      5539            0.0000000000
     38870      5732  TIP3      OH2            11.2187263852       19.5308662504      -37.7218296535  TIP3      5540            0.0000000000
     38871      5732  TIP3      H1             11.1433368178       19.4674579826      -38.6897796549  TIP3      5540            0.0000000000
     38872      5732  TIP3      H2             11.2530099822       20.4926056176      -37.5634622078  TIP3      5540            0.0000000000
     38873      5733  TIP3      OH2             4.8683694092       18.4107116189      -35.8992599894  TIP3      5541            0.0000000000
     38874      5733  TIP3      H1              5.0124613214       17.9962870584      -35.0204552203  TIP3      5541            0.0000000000
     38875      5733  TIP3      H2              4.0197194473       18.0045494409      -36.1388980553  TIP3      5541            0.0000000000
     38876      5734  TIP3      OH2            14.2522747447       18.7545633438      -40.7411369670  TIP3      5542            0.0000000000
     38877      5734  TIP3      H1             14.7161177077       17.9966593526      -41.1692534567  TIP3      5542            0.0000000000
     38878      5734  TIP3      H2             14.3269491568       18.4934021063      -39.8059890513  TIP3      5542            0.0000000000
     38879      5735  TIP3      OH2            13.9667372879       18.7067636214      -37.9472489715  TIP3      5543            0.0000000000
     38880      5735  TIP3      H1             13.0081902794       18.7529761662      -37.7711206831  TIP3      5543            0.0000000000
     38881      5735  TIP3      H2             14.2221405243       17.9554365832      -37.3900919244  TIP3      5543            0.0000000000
     38882      5736  TIP3      OH2            16.9646227390        7.6781794190      -25.8960729304  TIP3      5544            0.0000000000
     38883      5736  TIP3      H1             16.5144697116        8.1791191800      -26.5993341684  TIP3      5544            0.0000000000
     38884      5736  TIP3      H2             16.9856925719        6.7831423195      -26.2592830419  TIP3      5544            0.0000000000
     38885      5737  TIP3      OH2             4.1026030419       14.1263843917      -27.9069868113  TIP3      5545            0.0000000000
     38886      5737  TIP3      H1              4.3328732379       13.7571518107      -27.0249676453  TIP3      5545            0.0000000000
     38887      5737  TIP3      H2              3.2424794122       13.7192979642      -28.1335319418  TIP3      5545            0.0000000000
     38888      5738  TIP3      OH2             6.7931704987        2.5948599087      -31.9493899104  TIP3      5546            0.0000000000
     38889      5738  TIP3      H1              5.8901772850        2.4758539120      -32.3211065905  TIP3      5546            0.0000000000
     38890      5738  TIP3      H2              6.6680689119        3.4309784706      -31.4721684950  TIP3      5546            0.0000000000
     38891      5739  TIP3      OH2            11.4307494157        2.2986101380      -28.5631053868  TIP3      5547            0.0000000000
     38892      5739  TIP3      H1             11.8208222075        1.8495246429      -27.8079113290  TIP3      5547            0.0000000000
     38893      5739  TIP3      H2             10.4634740089        2.1368947888      -28.4564314544  TIP3      5547            0.0000000000
     38894      5740  TIP3      OH2            14.7150207921        6.1026033397      -27.6901744411  TIP3      5548            0.0000000000
     38895      5740  TIP3      H1             14.1659465763        5.9235720438      -26.8859627410  TIP3      5548            0.0000000000
     38896      5740  TIP3      H2             14.5419949209        7.0318077560      -27.9288900311  TIP3      5548            0.0000000000
     38897      5741  TIP3      OH2            15.5871508807       10.9562862383      -41.7247148290  TIP3      5549            0.0000000000
     38898      5741  TIP3      H1             15.5223594642       10.7966395791      -42.7017587702  TIP3      5549            0.0000000000
     38899      5741  TIP3      H2             16.4394695086       11.4258953433      -41.7684142956  TIP3      5549            0.0000000000
     38900      5742  TIP3      OH2            11.0863346209        4.8398350275      -41.2453093922  TIP3      5550            0.0000000000
     38901      5742  TIP3      H1             10.7682325013        4.8006321683      -40.3236956043  TIP3      5550            0.0000000000
     38902      5742  TIP3      H2             10.8069121602        3.9625532705      -41.5379646826  TIP3      5550            0.0000000000
     38903      5743  TIP3      OH2             6.8970613186        7.5683769223      -30.7068206490  TIP3      5551            0.0000000000
     38904      5743  TIP3      H1              6.1629838764        7.5550999666      -30.0672735054  TIP3      5551            0.0000000000
     38905      5743  TIP3      H2              6.8525749008        8.4808512590      -31.0719152698  TIP3      5551            0.0000000000
     38906      5744  TIP3      OH2             6.8569130838        7.6984222101      -35.8423045069  TIP3      5552            0.0000000000
     38907      5744  TIP3      H1              5.9218258168        7.4352283078      -35.9728808531  TIP3      5552            0.0000000000
     38908      5744  TIP3      H2              7.2388324028        7.3978670120      -36.6896134932  TIP3      5552            0.0000000000
     38909      5745  TIP3      OH2            12.3949634517        8.1974000556      -37.0765328591  TIP3      5553            0.0000000000
     38910      5745  TIP3      H1             11.9606447920        9.0134088260      -37.4085603546  TIP3      5553            0.0000000000
     38911      5745  TIP3      H2             13.0614080504        8.0158175269      -37.7625112089  TIP3      5553            0.0000000000
     38912      5746  TIP3      OH2            11.4473596393        8.3856470663      -25.6553250070  TIP3      5554            0.0000000000
     38913      5746  TIP3      H1             10.9163086139        7.6316344183      -25.2997325988  TIP3      5554            0.0000000000
     38914      5746  TIP3      H2             12.2699889485        8.2981822036      -25.1379724350  TIP3      5554            0.0000000000
     38915      5747  TIP3      OH2            13.4122103979        7.6715636911      -34.2167369944  TIP3      5555            0.0000000000
     38916      5747  TIP3      H1             13.1232913145        8.2339517101      -34.9537882987  TIP3      5555            0.0000000000
     38917      5747  TIP3      H2             13.5143454206        6.8269452892      -34.6946947052  TIP3      5555            0.0000000000
     38918      5748  TIP3      OH2             4.5245222823        7.8295889087      -29.0149811939  TIP3      5556            0.0000000000
     38919      5748  TIP3      H1              4.5906179746        8.2359104595      -28.1337801093  TIP3      5556            0.0000000000
     38920      5748  TIP3      H2              4.0784905289        6.9915727764      -28.8117822199  TIP3      5556            0.0000000000
     38921      5749  TIP3      OH2             8.0649562212        5.4394228853      -41.8491924243  TIP3      5557            0.0000000000
     38922      5749  TIP3      H1              7.5196600711        4.8103007799      -41.3310949788  TIP3      5557            0.0000000000
     38923      5749  TIP3      H2              7.4529014825        5.7971618129      -42.4907247886  TIP3      5557            0.0000000000
     38924      5750  TIP3      OH2             1.1786329696        4.9396717529      -35.0410200698  TIP3      5558            0.0000000000
     38925      5750  TIP3      H1              1.8574977662        4.9013966377      -34.3376684422  TIP3      5558            0.0000000000
     38926      5750  TIP3      H2              1.6299815649        4.5561069245      -35.8158587742  TIP3      5558            0.0000000000
     38927      5751  TIP3      OH2             2.4730419288        5.6628901036      -39.6673254084  TIP3      5559            0.0000000000
     38928      5751  TIP3      H1              2.9596440645        6.2572374675      -40.2738371720  TIP3      5559            0.0000000000
     38929      5751  TIP3      H2              1.7794259955        6.2812174114      -39.3506450439  TIP3      5559            0.0000000000
     38930      5752  TIP3      OH2            12.6118629938        9.2704768605      -29.6492894119  TIP3      5560            0.0000000000
     38931      5752  TIP3      H1             12.9860002714        8.5913677588      -30.2469705381  TIP3      5560            0.0000000000
     38932      5752  TIP3      H2             12.1499530150        8.7330264670      -28.9824132610  TIP3      5560            0.0000000000
     38933      5753  TIP3      OH2             9.4166375581        5.2411872773      -34.8337275750  TIP3      5561            0.0000000000
     38934      5753  TIP3      H1              8.4830980685        5.2472959648      -34.5396048276  TIP3      5561            0.0000000000
     38935      5753  TIP3      H2              9.8988806125        5.0822933666      -34.0089569079  TIP3      5561            0.0000000000
     38936      5754  TIP3      OH2             4.2245019504        6.7966243059      -35.9630580758  TIP3      5562            0.0000000000
     38937      5754  TIP3      H1              3.3385861154        6.9460763731      -36.3524106546  TIP3      5562            0.0000000000
     38938      5754  TIP3      H2              4.5108772558        5.9616058682      -36.3683546565  TIP3      5562            0.0000000000
     38939      5755  TIP3      OH2             7.8617339213        6.8564024840      -38.3309154282  TIP3      5563            0.0000000000
     38940      5755  TIP3      H1              8.8202485755        6.9559453939      -38.1644030450  TIP3      5563            0.0000000000
     38941      5755  TIP3      H2              7.6355350587        7.5079472039      -39.0160100561  TIP3      5563            0.0000000000
     38942      5756  TIP3      OH2            13.8227311713        4.4654410057      -31.5893028578  TIP3      5564            0.0000000000
     38943      5756  TIP3      H1             13.1341608195        4.5416555985      -30.8930121350  TIP3      5564            0.0000000000
     38944      5756  TIP3      H2             13.3117118255        4.2263486051      -32.3751928601  TIP3      5564            0.0000000000
     38945      5757  TIP3      OH2             6.5616135057        8.0130666108      -40.7385543533  TIP3      5565            0.0000000000
     38946      5757  TIP3      H1              6.0078199328        7.6628484328      -41.4581386409  TIP3      5565            0.0000000000
     38947      5757  TIP3      H2              7.3865127589        8.2280302413      -41.2017656908  TIP3      5565            0.0000000000
     38948      5758  TIP3      OH2             4.7167911810       12.6004464752      -25.7024012419  TIP3      5566            0.0000000000
     38949      5758  TIP3      H1              5.4141523041       12.8454550232      -25.0669058953  TIP3      5566            0.0000000000
     38950      5758  TIP3      H2              3.9350611710       12.6952519399      -25.1167669828  TIP3      5566            0.0000000000
     38951      5759  TIP3      OH2            10.7039937058        8.0032214710      -32.9408518045  TIP3      5567            0.0000000000
     38952      5759  TIP3      H1             11.2916730246        7.4557958155      -33.4725487943  TIP3      5567            0.0000000000
     38953      5759  TIP3      H2             10.5530841316        7.4562672833      -32.1572803703  TIP3      5567            0.0000000000
     38954      5760  TIP3      OH2             5.7081792675        4.1414424361      -36.4912140752  TIP3      5568            0.0000000000
     38955      5760  TIP3      H1              5.3991680290        3.2184310887      -36.5160038369  TIP3      5568            0.0000000000
     38956      5760  TIP3      H2              6.4948685148        4.0834780491      -37.0523265269  TIP3      5568            0.0000000000
     38957      5761  TIP3      OH2             9.3372426450        6.3315102562      -30.5245716202  TIP3      5569            0.0000000000
     38958      5761  TIP3      H1              8.5099629964        6.8440893048      -30.4307749958  TIP3      5569            0.0000000000
     38959      5761  TIP3      H2              9.8890601541        6.6761877626      -29.7953494900  TIP3      5569            0.0000000000
     38960      5762  TIP3      OH2             9.9288674586       12.5374782928      -38.8056295122  TIP3      5570            0.0000000000
     38961      5762  TIP3      H1              9.1288763573       12.0795186328      -39.1457977700  TIP3      5570            0.0000000000
     38962      5762  TIP3      H2              9.7058400604       12.6543962806      -37.8630577211  TIP3      5570            0.0000000000
     38963      5763  TIP3      OH2            17.1026546371       11.7463237227      -30.0332386170  TIP3      5571            0.0000000000
     38964      5763  TIP3      H1             17.6737746392       12.2307310228      -30.6551504245  TIP3      5571            0.0000000000
     38965      5763  TIP3      H2             16.2430466803       11.8037614716      -30.4968345536  TIP3      5571            0.0000000000
     38966      5764  TIP3      OH2            13.7907417368        5.3382277719      -40.6269640518  TIP3      5572            0.0000000000
     38967      5764  TIP3      H1             12.8469501528        5.4970109744      -40.8102921567  TIP3      5572            0.0000000000
     38968      5764  TIP3      H2             14.0850877388        6.2139278566      -40.3307376745  TIP3      5572            0.0000000000
     38969      5765  TIP3      OH2            11.4020856336       12.7936691562      -27.6246768519  TIP3      5573            0.0000000000
     38970      5765  TIP3      H1             11.0637526446       12.3873269502      -26.8179595224  TIP3      5573            0.0000000000
     38971      5765  TIP3      H2             11.1671399925       13.7206300842      -27.5114807207  TIP3      5573            0.0000000000
     38972      5766  TIP3      OH2            14.4891480768        7.3183418278      -38.9489019574  TIP3      5574            0.0000000000
     38973      5766  TIP3      H1             15.3891692434        7.1053095553      -38.6244116276  TIP3      5574            0.0000000000
     38974      5766  TIP3      H2             14.5877034717        8.0700605096      -39.5424231286  TIP3      5574            0.0000000000
     38975      5767  TIP3      OH2             5.0332149111       11.9399629930      -33.0274965119  TIP3      5575            0.0000000000
     38976      5767  TIP3      H1              5.7247551017       11.8625105594      -33.7128193154  TIP3      5575            0.0000000000
     38977      5767  TIP3      H2              5.0940585627       11.0810124533      -32.5723229868  TIP3      5575            0.0000000000
     38978      5768  TIP3      OH2            12.0440595927       14.0056368998      -39.7391481709  TIP3      5576            0.0000000000
     38979      5768  TIP3      H1             11.6636662641       14.8583161443      -39.4390558912  TIP3      5576            0.0000000000
     38980      5768  TIP3      H2             11.2797784990       13.4034585110      -39.5918146125  TIP3      5576            0.0000000000
     38981      5769  TIP3      OH2             2.0197309607       10.3443713613      -27.7723505331  TIP3      5577            0.0000000000
     38982      5769  TIP3      H1              2.1912466388        9.9027410372      -26.9145935110  TIP3      5577            0.0000000000
     38983      5769  TIP3      H2              1.3963896036        9.7253989866      -28.1900523066  TIP3      5577            0.0000000000
     38984      5770  TIP3      OH2             9.0271117775        9.8996934999      -25.5806889118  TIP3      5578            0.0000000000
     38985      5770  TIP3      H1              8.7329583237        9.6166009452      -26.4537802606  TIP3      5578            0.0000000000
     38986      5770  TIP3      H2              9.9577547455        9.5982428358      -25.5658171051  TIP3      5578            0.0000000000
     38987      5771  TIP3      OH2            13.7084407088       15.2389464118      -27.6315024934  TIP3      5579            0.0000000000
     38988      5771  TIP3      H1             12.7864309693       15.4200152588      -27.8738029858  TIP3      5579            0.0000000000
     38989      5771  TIP3      H2             13.6756291506       15.5263406016      -26.6987371473  TIP3      5579            0.0000000000
     38990      5772  TIP3      OH2            19.3651733327        7.4212865104      -39.2169348931  TIP3      5580            0.0000000000
     38991      5772  TIP3      H1             18.8411686171        7.0914637613      -39.9674094209  TIP3      5580            0.0000000000
     38992      5772  TIP3      H2             19.4972850252        8.3402125121      -39.5248893659  TIP3      5580            0.0000000000
     38993      5773  TIP3      OH2            19.3864805988       13.2720355932      -26.4344735100  TIP3      5581            0.0000000000
     38994      5773  TIP3      H1             18.4967571372       13.4875972065      -26.8019319527  TIP3      5581            0.0000000000
     38995      5773  TIP3      H2             19.9334423560       13.2212178786      -27.2412195252  TIP3      5581            0.0000000000
     38996      5774  TIP3      OH2            17.6859343223       16.2417742312      -38.8498797062  TIP3      5582            0.0000000000
     38997      5774  TIP3      H1             17.3079294803       15.4223557453      -38.5151985500  TIP3      5582            0.0000000000
     38998      5774  TIP3      H2             17.9876715534       16.0625011400      -39.7618456844  TIP3      5582            0.0000000000
     38999      5775  TIP3      OH2            14.8846601401       11.0679910554      -31.7453251200  TIP3      5583            0.0000000000
     39000      5775  TIP3      H1             13.9452123543       10.8556562339      -31.8528035931  TIP3      5583            0.0000000000
     39001      5775  TIP3      H2             15.3159949941       10.3035403162      -32.1720644155  TIP3      5583            0.0000000000
     39002      5776  TIP3      OH2             7.4026817899       15.3945052397      -35.6410133798  TIP3      5584            0.0000000000
     39003      5776  TIP3      H1              7.9062861771       16.1991650170      -35.8483491832  TIP3      5584            0.0000000000
     39004      5776  TIP3      H2              6.5253899914       15.6306221056      -35.9708301761  TIP3      5584            0.0000000000
     39005      5777  TIP3      OH2             3.1367710554       10.2549958568      -41.1073032062  TIP3      5585            0.0000000000
     39006      5777  TIP3      H1              3.7608782737       10.8801140430      -40.6930889157  TIP3      5585            0.0000000000
     39007      5777  TIP3      H2              2.2681443417       10.5415146236      -40.7782109542  TIP3      5585            0.0000000000
     39008      5778  TIP3      OH2             8.8278204167       13.0581309190      -36.1138543279  TIP3      5586            0.0000000000
     39009      5778  TIP3      H1              8.5170978247       13.9820253796      -36.0379274672  TIP3      5586            0.0000000000
     39010      5778  TIP3      H2              8.0980012614       12.5750960996      -35.6779444021  TIP3      5586            0.0000000000
     39011      5779  TIP3      OH2             9.2784727133       17.2433436064      -29.7190187760  TIP3      5587            0.0000000000
     39012      5779  TIP3      H1              9.7289122487       18.0557092435      -30.0000411611  TIP3      5587            0.0000000000
     39013      5779  TIP3      H2              9.8881445239       16.9052583040      -29.0379315266  TIP3      5587            0.0000000000
     39014      5780  TIP3      OH2             7.5026356920       18.0616995571      -36.5991298937  TIP3      5588            0.0000000000
     39015      5780  TIP3      H1              6.5364440417       18.1963443139      -36.4570481107  TIP3      5588            0.0000000000
     39016      5780  TIP3      H2              7.8597601468       18.8942232864      -36.2377155008  TIP3      5588            0.0000000000
     39017      5781  TIP3      OH2            12.8033965299       13.2515164783      -30.1102395349  TIP3      5589            0.0000000000
     39018      5781  TIP3      H1             12.4660503950       13.0590137393      -29.2118810561  TIP3      5589            0.0000000000
     39019      5781  TIP3      H2             13.4433791695       12.5375102317      -30.2570779551  TIP3      5589            0.0000000000
     39020      5782  TIP3      OH2            15.0831386395       14.2203278874      -41.0038777492  TIP3      5590            0.0000000000
     39021      5782  TIP3      H1             15.3851544699       13.8993614880      -40.1391391916  TIP3      5590            0.0000000000
     39022      5782  TIP3      H2             14.1191889818       14.1580793178      -40.9094066220  TIP3      5590            0.0000000000
     39023      5783  TIP3      OH2            15.5731246021       17.8585682215      -27.5681830018  TIP3      5591            0.0000000000
     39024      5783  TIP3      H1             14.9299965792       17.3340178418      -28.0882300402  TIP3      5591            0.0000000000
     39025      5783  TIP3      H2             15.8020574239       18.5214642717      -28.2590016821  TIP3      5591            0.0000000000
     39026      5784  TIP3      OH2            19.6048940440       18.7013065425      -40.7506335641  TIP3      5592            0.0000000000
     39027      5784  TIP3      H1             20.3027327134       19.3352351456      -40.9923484979  TIP3      5592            0.0000000000
     39028      5784  TIP3      H2             18.8859217182       19.3021557507      -40.4558483267  TIP3      5592            0.0000000000
     39029      5785  TIP3      OH2             3.6764984834        5.0884509637      -28.2053578270  TIP3      5593            0.0000000000
     39030      5785  TIP3      H1              2.7651032538        5.4311052324      -28.2430430199  TIP3      5593            0.0000000000
     39031      5785  TIP3      H2              3.5594214651        4.2332368823      -27.7604793790  TIP3      5593            0.0000000000
     39032      5786  TIP3      OH2            15.9404493655       13.1225870675      -38.7190641174  TIP3      5594            0.0000000000
     39033      5786  TIP3      H1             15.5762177970       12.5157011467      -38.0575316968  TIP3      5594            0.0000000000
     39034      5786  TIP3      H2             16.8989361626       13.1644343092      -38.5153069337  TIP3      5594            0.0000000000
     39035      5787  TIP3      OH2             3.2909286436       16.8683084764      -29.7827341960  TIP3      5595            0.0000000000
     39036      5787  TIP3      H1              3.5815528677       15.9443053453      -29.7797818151  TIP3      5595            0.0000000000
     39037      5787  TIP3      H2              3.5529312517       17.1571526463      -28.9017774794  TIP3      5595            0.0000000000
     39038      5788  TIP3      OH2             8.0411734537       14.9521068219      -40.0794250845  TIP3      5596            0.0000000000
     39039      5788  TIP3      H1              8.2926574981       14.3942952376      -39.3320484600  TIP3      5596            0.0000000000
     39040      5788  TIP3      H2              8.1171906447       15.8633557579      -39.7357621186  TIP3      5596            0.0000000000
     39041      5789  TIP3      OH2             4.5266788664       12.1781120333      -39.6256809606  TIP3      5597            0.0000000000
     39042      5789  TIP3      H1              3.8692151265       12.5781982151      -39.0167540302  TIP3      5597            0.0000000000
     39043      5789  TIP3      H2              5.0964488632       12.9376479863      -39.8391936086  TIP3      5597            0.0000000000
     39044      5790  TIP3      OH2            12.4007852783        4.8696443099      -29.2653326305  TIP3      5598            0.0000000000
     39045      5790  TIP3      H1             13.1197216945        4.8928433052      -28.6239182537  TIP3      5598            0.0000000000
     39046      5790  TIP3      H2             12.0184311941        3.9831275013      -29.0955537877  TIP3      5598            0.0000000000
     39047      5791  TIP3      OH2            13.1453279382        4.4481603853      -38.1509943708  TIP3      5599            0.0000000000
     39048      5791  TIP3      H1             13.3931277973        4.9004195003      -38.9842398235  TIP3      5599            0.0000000000
     39049      5791  TIP3      H2             13.7327789247        4.8871501524      -37.5242742837  TIP3      5599            0.0000000000
     39050      5792  TIP3      OH2            10.8369950878       16.5981636987      -39.3415615666  TIP3      5600            0.0000000000
     39051      5792  TIP3      H1             10.0193047176       17.1198694549      -39.2830608111  TIP3      5600            0.0000000000
     39052      5792  TIP3      H2             11.3793703754       17.0984117864      -39.9753700973  TIP3      5600            0.0000000000
     39053      5793  TIP3      OH2            10.3727570011        6.1786580782      -37.3572011688  TIP3      5601            0.0000000000
     39054      5793  TIP3      H1             11.1633407079        6.7522666146      -37.3224670971  TIP3      5601            0.0000000000
     39055      5793  TIP3      H2             10.1101159742        6.0476543938      -36.4279857223  TIP3      5601            0.0000000000
     39056      5794  TIP3      OH2            10.9203971956        7.1980510287      -28.1587508480  TIP3      5602            0.0000000000
     39057      5794  TIP3      H1             11.0070483307        7.7623307875      -27.3661335246  TIP3      5602            0.0000000000
     39058      5794  TIP3      H2             11.5889866821        6.5081849608      -28.0543086687  TIP3      5602            0.0000000000
     39059      5795  TIP3      OH2            11.2324920386        3.2378418689      -36.4691822773  TIP3      5603            0.0000000000
     39060      5795  TIP3      H1             10.9094454423        3.8830225527      -35.8159650528  TIP3      5603            0.0000000000
     39061      5795  TIP3      H2             11.9255751221        3.7862434316      -36.9141799631  TIP3      5603            0.0000000000
     39062      5796  TIP3      OH2             8.2055894649       17.6371625381      -39.3236798770  TIP3      5604            0.0000000000
     39063      5796  TIP3      H1              8.3789760550       18.4585411014      -39.8289896474  TIP3      5604            0.0000000000
     39064      5796  TIP3      H2              7.9640718266       17.9791952444      -38.4329461581  TIP3      5604            0.0000000000
     39065      5797  TIP3      OH2             6.8938918277        4.3239297920      -39.7156981731  TIP3      5605            0.0000000000
     39066      5797  TIP3      H1              6.8286490879        5.2423637583      -39.3836285896  TIP3      5605            0.0000000000
     39067      5797  TIP3      H2              7.8099950528        4.1046090564      -39.4593023924  TIP3      5605            0.0000000000
     39068      5798  TIP3      OH2            17.1123045830        5.0691270501      -27.3255567423  TIP3      5606            0.0000000000
     39069      5798  TIP3      H1             16.1835056898        5.3792294177      -27.4468542720  TIP3      5606            0.0000000000
     39070      5798  TIP3      H2             17.4117990286        5.0430336515      -28.2488223315  TIP3      5606            0.0000000000
     39071      5799  TIP3      OH2            15.7248228491        8.8590239519      -33.2830120994  TIP3      5607            0.0000000000
     39072      5799  TIP3      H1             14.9052567131        8.4171331015      -33.5801244335  TIP3      5607            0.0000000000
     39073      5799  TIP3      H2             16.2028996102        8.1631346204      -32.7810227729  TIP3      5607            0.0000000000
     39074      5800  TIP3      OH2             5.1335376200       14.7886687996      -40.7061842648  TIP3      5608            0.0000000000
     39075      5800  TIP3      H1              5.7894880431       15.4188441840      -40.3918689611  TIP3      5608            0.0000000000
     39076      5800  TIP3      H2              5.6496998095       14.3181262364      -41.3902350605  TIP3      5608            0.0000000000
     39077      5801  TIP3      OH2             3.5168736902        7.4596921223      -41.5142451875  TIP3      5609            0.0000000000
     39078      5801  TIP3      H1              3.4828452238        8.4240138028      -41.3959557686  TIP3      5609            0.0000000000
     39079      5801  TIP3      H2              2.6436847803        7.2577728866      -41.8709354924  TIP3      5609            0.0000000000
     39080      5802  TIP3      OH2            16.7824956026       18.1284676364      -31.6236886483  TIP3      5610            0.0000000000
     39081      5802  TIP3      H1             16.6950029112       18.8029981308      -32.3243545173  TIP3      5610            0.0000000000
     39082      5802  TIP3      H2             17.7471672996       18.1778747586      -31.4472166073  TIP3      5610            0.0000000000
     39083      5803  TIP3      OH2             4.2828298632        2.2407863252      -32.8320237725  TIP3      5611            0.0000000000
     39084      5803  TIP3      H1              4.0823977152        2.2611322634      -33.7943341550  TIP3      5611            0.0000000000
     39085      5803  TIP3      H2              3.8638793869        1.3923091934      -32.5768776121  TIP3      5611            0.0000000000
     39086      5804  TIP3      OH2             3.2419578333       16.1602295703      -36.6900536117  TIP3      5612            0.0000000000
     39087      5804  TIP3      H1              2.3856735088       16.6128525470      -36.7221757951  TIP3      5612            0.0000000000
     39088      5804  TIP3      H2              3.7187640939       16.6337947752      -37.3829652576  TIP3      5612            0.0000000000
     39089      5805  TIP3      OH2             2.4592242139       18.8188683227      -25.3713241898  TIP3      5613            0.0000000000
     39090      5805  TIP3      H1              3.0640015877       18.5745748248      -24.6687908782  TIP3      5613            0.0000000000
     39091      5805  TIP3      H2              2.0323621435       17.9730879103      -25.5995204272  TIP3      5613            0.0000000000
     39092      5806  TIP3      OH2             7.1007446178       17.7701833993      -23.8059341433  TIP3      5614            0.0000000000
     39093      5806  TIP3      H1              7.8322643823       17.2212846615      -23.4649660621  TIP3      5614            0.0000000000
     39094      5806  TIP3      H2              7.0860508289       17.4451673056      -24.7260609804  TIP3      5614            0.0000000000
     39095      5807  TIP3      OH2            11.6137360644       17.3006947952      -41.8210731637  TIP3      5615            0.0000000000
     39096      5807  TIP3      H1             10.7762364641       16.8095917666      -41.9143789002  TIP3      5615            0.0000000000
     39097      5807  TIP3      H2             12.1075592049       16.8374547507      -42.5003595877  TIP3      5615            0.0000000000
     39098      5808  TIP3      OH2            13.7198267657       16.0716790277      -25.0980596467  TIP3      5616            0.0000000000
     39099      5808  TIP3      H1             13.3065951192       15.2512264406      -24.7677900431  TIP3      5616            0.0000000000
     39100      5808  TIP3      H2             14.3970724483       16.2018311144      -24.4343146292  TIP3      5616            0.0000000000
     39101      5809  TIP3      OH2            15.8251881070       17.0320575605      -42.1919973728  TIP3      5617            0.0000000000
     39102      5809  TIP3      H1             16.0836821371       16.2219283233      -41.7185920064  TIP3      5617            0.0000000000
     39103      5809  TIP3      H2             16.6014669636       17.2258112636      -42.7306112736  TIP3      5617            0.0000000000
     39104      5810  TIP3      OH2             2.3785920526       12.6038369882      -24.4065848594  TIP3      5618            0.0000000000
     39105      5810  TIP3      H1              2.5488895503       11.6957874248      -24.7311577123  TIP3      5618            0.0000000000
     39106      5810  TIP3      H2              1.6188858252       12.8593021777      -24.9572278363  TIP3      5618            0.0000000000
     39107      5811  TIP3      OH2             6.7965660504       13.0039647425      -42.2466074322  TIP3      5619            0.0000000000
     39108      5811  TIP3      H1              6.8441445857       12.1668713009      -41.7760651654  TIP3      5619            0.0000000000
     39109      5811  TIP3      H2              7.3546114567       12.7790404658      -43.0171910782  TIP3      5619            0.0000000000
     39110      5812  TIP3      OH2             9.0858391129       12.5719310369      -25.0488469526  TIP3      5620            0.0000000000
     39111      5812  TIP3      H1              8.7262777178       12.8767582386      -25.8980053108  TIP3      5620            0.0000000000
     39112      5812  TIP3      H2              9.1368710817       11.5940399986      -25.1106201409  TIP3      5620            0.0000000000
     39113      5813  TIP3      OH2            14.7804038855       12.4419450519      -27.6409835290  TIP3      5621            0.0000000000
     39114      5813  TIP3      H1             15.5658767982       13.0236658514      -27.7159004875  TIP3      5621            0.0000000000
     39115      5813  TIP3      H2             14.0720746044       13.0970444318      -27.5659408158  TIP3      5621            0.0000000000
     39116      5814  TIP3      OH2             3.2902067601        9.8261410693      -25.0121471629  TIP3      5622            0.0000000000
     39117      5814  TIP3      H1              3.6576577075        8.9434568460      -25.1145156286  TIP3      5622            0.0000000000
     39118      5814  TIP3      H2              3.0105534394        9.7814424011      -24.0811849129  TIP3      5622            0.0000000000
     39119      5815  TIP3      OH2             7.9226130511       10.9666497967      -39.9632195251  TIP3      5623            0.0000000000
     39120      5815  TIP3      H1              7.4165923705       10.4333733731      -39.3295535979  TIP3      5623            0.0000000000
     39121      5815  TIP3      H2              8.2189815682       10.2723373066      -40.6008049154  TIP3      5623            0.0000000000
     39122      5816  TIP3      OH2             7.1739646696        8.7593005551      -27.6667871763  TIP3      5624            0.0000000000
     39123      5816  TIP3      H1              6.5813772674        9.4832232315      -27.4100398796  TIP3      5624            0.0000000000
     39124      5816  TIP3      H2              7.5674949004        9.1233567894      -28.4773579975  TIP3      5624            0.0000000000
     39125      5817  TIP3      OH2             8.9900228797        9.1848172094      -41.7594624344  TIP3      5625            0.0000000000
     39126      5817  TIP3      H1              8.8707523655        8.9844202392      -42.6982537055  TIP3      5625            0.0000000000
     39127      5817  TIP3      H2              9.9682637155        9.2600201179      -41.6622901185  TIP3      5625            0.0000000000
     39128      5818  TIP3      OH2            18.1471352368       11.6144818922       42.7742468526  TIP3      5626            0.0000000000
     39129      5818  TIP3      H1             18.0796671616       11.1186869794       41.9287774251  TIP3      5626            0.0000000000
     39130      5818  TIP3      H2             18.3931379439       12.5014283343       42.4673504774  TIP3      5626            0.0000000000
     39131      5819  TIP3      OH2             7.5609565499        6.1437360655      -26.5845354338  TIP3      5627            0.0000000000
     39132      5819  TIP3      H1              7.6899779421        5.4274085281      -27.2307891126  TIP3      5627            0.0000000000
     39133      5819  TIP3      H2              7.5336274901        6.9448978299      -27.1478712949  TIP3      5627            0.0000000000
     39134      5820  TIP3      OH2             7.9807902238        4.5142581521      -29.0572204812  TIP3      5628            0.0000000000
     39135      5820  TIP3      H1              8.4914293942        4.9806256458      -29.7605627227  TIP3      5628            0.0000000000
     39136      5820  TIP3      H2              7.0888667986        4.4346021046      -29.4663920297  TIP3      5628            0.0000000000
     39137      5821  TIP3      OH2             9.5215851975       10.0045149661      -28.8102582279  TIP3      5629            0.0000000000
     39138      5821  TIP3      H1             10.2739100830        9.8342554146      -29.3874347168  TIP3      5629            0.0000000000
     39139      5821  TIP3      H2              9.1509969854       10.8312768182      -29.1615729377  TIP3      5629            0.0000000000
     39140      5822  TIP3      OH2            13.9242748408        7.7830233601      -23.8868806943  TIP3      5630            0.0000000000
     39141      5822  TIP3      H1             14.1517115426        6.8429935898      -23.8308271617  TIP3      5630            0.0000000000
     39142      5822  TIP3      H2             14.7898913266        8.2074557397      -23.8038279829  TIP3      5630            0.0000000000
     39143      5823  TIP3      OH2            15.2630433220       10.5263034209      -25.7455286912  TIP3      5631            0.0000000000
     39144      5823  TIP3      H1             15.0083274158       11.3054899433      -26.2771211626  TIP3      5631            0.0000000000
     39145      5823  TIP3      H2             16.2312812796       10.5272137731      -25.8822425410  TIP3      5631            0.0000000000
     39146      5824  TIP3      OH2             6.0366630425        7.3711560657      -24.6685653443  TIP3      5632            0.0000000000
     39147      5824  TIP3      H1              5.2700204500        6.8057790274      -24.8867515981  TIP3      5632            0.0000000000
     39148      5824  TIP3      H2              6.6899117990        7.0199514159      -25.2982991645  TIP3      5632            0.0000000000
     39149      5825  TIP3      OH2             8.7622020680        1.9396212689      -28.6494677969  TIP3      5633            0.0000000000
     39150      5825  TIP3      H1              8.6155210587        2.9042254164      -28.7614532465  TIP3      5633            0.0000000000
     39151      5825  TIP3      H2              8.0126013282        1.5888571591      -29.1636116242  TIP3      5633            0.0000000000
     39152      5826  TIP3      OH2            10.0334039266        6.2873869543      -25.0659828526  TIP3      5634            0.0000000000
     39153      5826  TIP3      H1              9.7599493240        6.0660248158      -24.1450433533  TIP3      5634            0.0000000000
     39154      5826  TIP3      H2              9.2247122849        6.0871758846      -25.5734009544  TIP3      5634            0.0000000000
     39155      5827  TIP3      OH2            12.7620597032        5.3710764694      -25.9941855424  TIP3      5635            0.0000000000
     39156      5827  TIP3      H1             11.8018024792        5.4982980730      -25.8422612763  TIP3      5635            0.0000000000
     39157      5827  TIP3      H2             12.9978784482        4.8002819847      -25.2574384771  TIP3      5635            0.0000000000
     39158      5828  TIP3      OH2             4.1740702535        5.3156956982      -24.9272825221  TIP3      5636            0.0000000000
     39159      5828  TIP3      H1              4.3734660413        4.5823522211      -25.5325426278  TIP3      5636            0.0000000000
     39160      5828  TIP3      H2              4.0383403071        4.8597848858      -24.0770072283  TIP3      5636            0.0000000000
     39161      5829  TIP3      OH2             8.9786554972        1.3406895306      -25.9510948685  TIP3      5637            0.0000000000
     39162      5829  TIP3      H1              9.6335017282        0.6278667832      -25.9927669306  TIP3      5637            0.0000000000
     39163      5829  TIP3      H2              8.8528904842        1.5074360298      -26.9074056267  TIP3      5637            0.0000000000
     39164      5830  TIP3      OH2             9.3877114141        2.9879377686      -23.9308431078  TIP3      5638            0.0000000000
     39165      5830  TIP3      H1              9.1590096925        2.4339298806      -24.7074787436  TIP3      5638            0.0000000000
     39166      5830  TIP3      H2              8.7631491623        3.7308902218      -23.9641701760  TIP3      5638            0.0000000000
     39167      5831  TIP3      OH2             8.8202879967       19.8613046136      -40.7433384955  TIP3      5639            0.0000000000
     39168      5831  TIP3      H1              9.7908470552       19.9690762819      -40.6082125417  TIP3      5639            0.0000000000
     39169      5831  TIP3      H2              8.6429517052       20.5371664295      -41.3950818809  TIP3      5639            0.0000000000
     39170      5832  TIP3      OH2             2.3937843021       14.4587901903      -41.2104104704  TIP3      5640            0.0000000000
     39171      5832  TIP3      H1              3.3534942725       14.5506258620      -40.9961667361  TIP3      5640            0.0000000000
     39172      5832  TIP3      H2              2.4258093608       13.8608757626      -41.9617586138  TIP3      5640            0.0000000000
     39173      5833  TIP3      OH2             1.1459558335       19.8362218018      -36.2373418489  TIP3      5641            0.0000000000
     39174      5833  TIP3      H1              0.4320168272       19.3506626136      -36.7061966321  TIP3      5641            0.0000000000
     39175      5833  TIP3      H2              1.4313055436       19.1772582256      -35.5792195288  TIP3      5641            0.0000000000
     39176      5834  TIP3      OH2             1.9712693034       17.9644101431      -34.3700725048  TIP3      5642            0.0000000000
     39177      5834  TIP3      H1              1.6199992470       17.0857420151      -34.1687383859  TIP3      5642            0.0000000000
     39178      5834  TIP3      H2              2.1962901946       18.2951660997      -33.4841771619  TIP3      5642            0.0000000000
     39179      5835  TIP3      OH2            19.5078990288       18.7591460636      -31.4406301446  TIP3      5643            0.0000000000
     39180      5835  TIP3      H1             19.5302527715       18.9171278156      -30.4823469997  TIP3      5643            0.0000000000
     39181      5835  TIP3      H2             20.2134329240       19.3428665323      -31.7386268462  TIP3      5643            0.0000000000
     39182      5836  TIP3      OH2            19.0888373569       18.3619885886      -28.5021614559  TIP3      5644            0.0000000000
     39183      5836  TIP3      H1             18.6069298110       17.5881887745      -28.8610749024  TIP3      5644            0.0000000000
     39184      5836  TIP3      H2             19.6058422058       17.9163755144      -27.8157114303  TIP3      5644            0.0000000000
     39185      5837  TIP3      OH2            18.8134329685       12.3734347307      -38.3859160678  TIP3      5645            0.0000000000
     39186      5837  TIP3      H1             19.6694394106       12.8194515051      -38.2018848838  TIP3      5645            0.0000000000
     39187      5837  TIP3      H2             18.8690447109       11.6854371885      -37.6848505092  TIP3      5645            0.0000000000
     39188      5838  TIP3      OH2            19.1802171613       10.4969767221      -36.5009446425  TIP3      5646            0.0000000000
     39189      5838  TIP3      H1             18.4714031635        9.9566414340      -36.0900572617  TIP3      5646            0.0000000000
     39190      5838  TIP3      H2             19.8092053438       10.6168900828      -35.7517670029  TIP3      5646            0.0000000000
     39191      5839  TIP3      OH2            18.9601383187       13.1778126854      -31.5218989956  TIP3      5647            0.0000000000
     39192      5839  TIP3      H1             19.7818010314       12.8075528098      -31.8882343124  TIP3      5647            0.0000000000
     39193      5839  TIP3      H2             19.1057823390       14.1343461370      -31.6822065986  TIP3      5647            0.0000000000
     39194      5840  TIP3      OH2            17.5175559384       16.0837212699      -29.2425420878  TIP3      5648            0.0000000000
     39195      5840  TIP3      H1             16.8261108816       16.4260038890      -28.6570149163  TIP3      5648            0.0000000000
     39196      5840  TIP3      H2             16.9703279272       15.6782212441      -29.9497696411  TIP3      5648            0.0000000000
     39197      5841  TIP3      OH2            19.4346277296       10.2808533849      -40.1062561762  TIP3      5649            0.0000000000
     39198      5841  TIP3      H1             18.9610648808       10.6836231145      -40.8556356994  TIP3      5649            0.0000000000
     39199      5841  TIP3      H2             19.4778135016       11.0170048112      -39.4652342912  TIP3      5649            0.0000000000
     39200      5842  TIP3      OH2            17.5076040162        7.5866784032      -41.5014851630  TIP3      5650            0.0000000000
     39201      5842  TIP3      H1             17.9554191421        8.1489947910      -42.1516122500  TIP3      5650            0.0000000000
     39202      5842  TIP3      H2             17.6769348064        6.7322901683      -41.9552143509  TIP3      5650            0.0000000000
     39203      5843  TIP3      OH2            16.9857284265        8.9749903641      -35.9526250821  TIP3      5651            0.0000000000
     39204      5843  TIP3      H1             16.8836807606        8.0038883462      -35.9611347706  TIP3      5651            0.0000000000
     39205      5843  TIP3      H2             16.7051285784        9.1719084670      -35.0368005861  TIP3      5651            0.0000000000
     39206      5844  TIP3      OH2             2.0277880020       11.0416240465      -31.8764252839  TIP3      5652            0.0000000000
     39207      5844  TIP3      H1              2.2120775813       10.9606357558      -32.8383855805  TIP3      5652            0.0000000000
     39208      5844  TIP3      H2              2.9208114800       10.8709076815      -31.5182558054  TIP3      5652            0.0000000000
     39209      5845  TIP3      OH2            17.8642746849       10.9297600491      -26.2806087105  TIP3      5653            0.0000000000
     39210      5845  TIP3      H1             18.4679486391       10.1873553188      -26.0939324571  TIP3      5653            0.0000000000
     39211      5845  TIP3      H2             18.4674367318       11.6955532078      -26.2369854010  TIP3      5653            0.0000000000
     39212      5846  TIP3      OH2            19.3857589348        8.8059259765      -25.6327260286  TIP3      5654            0.0000000000
     39213      5846  TIP3      H1             18.4904395315        8.4188532688      -25.7301484999  TIP3      5654            0.0000000000
     39214      5846  TIP3      H2             19.9494100241        8.0199428298      -25.6879968247  TIP3      5654            0.0000000000
     39215      5847  TIP3      OH2            17.1252101923        4.9509506943      -42.4913174612  TIP3      5655            0.0000000000
     39216      5847  TIP3      H1             17.7099284923        4.5456047345      -41.8167513153  TIP3      5655            0.0000000000
     39217      5847  TIP3      H2             16.2462567803        4.5991695873      -42.2791329431  TIP3      5655            0.0000000000
     39218      5848  TIP3      OH2            16.6950514525        6.5487738116      -37.4719896450  TIP3      5656            0.0000000000
     39219      5848  TIP3      H1             16.9892325886        5.6140380917      -37.3420702651  TIP3      5656            0.0000000000
     39220      5848  TIP3      H2             17.4904592767        6.9282756068      -37.8644835373  TIP3      5656            0.0000000000
     39221      5849  TIP3      OH2            17.3303547670        7.0854769577      -32.0335512476  TIP3      5657            0.0000000000
     39222      5849  TIP3      H1             18.2914112321        7.3140579954      -32.0454919123  TIP3      5657            0.0000000000
     39223      5849  TIP3      H2             17.1388595189        7.2259749014      -31.0936842328  TIP3      5657            0.0000000000
     39224      5850  TIP3      OH2            17.3950540456        7.8153050811      -29.2593053942  TIP3      5658            0.0000000000
     39225      5850  TIP3      H1             16.5211256622        8.0988421159      -28.9113552780  TIP3      5658            0.0000000000
     39226      5850  TIP3      H2             17.8301332847        8.6771681033      -29.4649991086  TIP3      5658            0.0000000000
     39227      5851  TIP3      OH2             1.6620597681        6.2818517875      -25.8353653048  TIP3      5659            0.0000000000
     39228      5851  TIP3      H1              2.5656951169        6.1473653085      -25.4891211088  TIP3      5659            0.0000000000
     39229      5851  TIP3      H2              1.1801429874        5.5473480611      -25.3982835832  TIP3      5659            0.0000000000
     39230      5852  TIP3      OH2            19.6325840633        1.8448897947      -23.9404666834  TIP3      5660            0.0000000000
     39231      5852  TIP3      H1             20.0275202533        1.1765693876      -24.5074236346  TIP3      5660            0.0000000000
     39232      5852  TIP3      H2             19.7802433754        2.6780605718      -24.4026114784  TIP3      5660            0.0000000000
     39233      5853  TIP3      OH2            17.3604113865        3.8153694099      -37.4303268547  TIP3      5661            0.0000000000
     39234      5853  TIP3      H1             17.5686625372        3.3793275474      -36.5753038379  TIP3      5661            0.0000000000
     39235      5853  TIP3      H2             16.7518366511        3.1871553418      -37.8734764660  TIP3      5661            0.0000000000
     39236      5854  TIP3      OH2             2.8464610607        4.6316899787      -32.8721955800  TIP3      5662            0.0000000000
     39237      5854  TIP3      H1              3.3085672711        3.8082182700      -32.6102001412  TIP3      5662            0.0000000000
     39238      5854  TIP3      H2              3.3895717438        5.3259669782      -32.4769784381  TIP3      5662            0.0000000000
     39239      5855  TIP3      OH2             1.1306096860        7.6307887179      -31.8295717806  TIP3      5663            0.0000000000
     39240      5855  TIP3      H1              1.6923007425        7.3890569282      -32.5949914631  TIP3      5663            0.0000000000
     39241      5855  TIP3      H2              1.5861604832        8.4404756238      -31.5535542060  TIP3      5663            0.0000000000
     39242      5856  TIP3      OH2            19.2049094470        4.0196343376      -25.5986657077  TIP3      5664            0.0000000000
     39243      5856  TIP3      H1             18.2525503441        4.2015755521      -25.6398733176  TIP3      5664            0.0000000000
     39244      5856  TIP3      H2             19.2627870567        3.3994817981      -26.3323824303  TIP3      5664            0.0000000000
     39245      5857  TIP3      OH2            19.1862435215        3.8888531158      -40.8894010952  TIP3      5665            0.0000000000
     39246      5857  TIP3      H1             19.6138080060        3.1583449709      -41.3527286360  TIP3      5665            0.0000000000
     39247      5857  TIP3      H2             19.9046795231        4.5400903394      -40.8343790306  TIP3      5665            0.0000000000
     39248      5858  TIP3      OH2             1.4917972290        3.8872647462      -37.7705022916  TIP3      5666            0.0000000000
     39249      5858  TIP3      H1              0.5512987103        4.0829587325      -37.8920421638  TIP3      5666            0.0000000000
     39250      5858  TIP3      H2              1.9124242804        4.3870442083      -38.4919388706  TIP3      5666            0.0000000000
     39251      5859  TIP3      OH2            16.2292056127       18.8398563467      -35.8067366411  TIP3      5667            0.0000000000
     39252      5859  TIP3      H1             16.9076414752       18.5223680328      -36.4305787036  TIP3      5667            0.0000000000
     39253      5859  TIP3      H2             16.7518190356       19.3404154854      -35.1632561124  TIP3      5667            0.0000000000
     39254      5860  TIP3      OH2             1.4473949178        2.5531912402      -29.4617117654  TIP3      5668            0.0000000000
     39255      5860  TIP3      H1              0.7760052818        2.3591535442      -28.7833317083  TIP3      5668            0.0000000000
     39256      5860  TIP3      H2              0.9878954112        3.2251482808      -30.0045672113  TIP3      5668            0.0000000000
     39257      5861  TIP3      OH2             3.6643965749       15.8106909937      -25.2671112044  TIP3      5669            0.0000000000
     39258      5861  TIP3      H1              2.8209866181       15.9363309356      -25.7315495476  TIP3      5669            0.0000000000
     39259      5861  TIP3      H2              3.3921474092       15.6552820158      -24.3679646726  TIP3      5669            0.0000000000
     39260      5862  TIP3      OH2             6.5783788019       16.7491847082      -29.0255645481  TIP3      5670            0.0000000000
     39261      5862  TIP3      H1              6.2400038789       17.6136260211      -29.2942713332  TIP3      5670            0.0000000000
     39262      5862  TIP3      H2              7.5058772499       16.8422561222      -29.3282529469  TIP3      5670            0.0000000000
     39263      5863  TIP3      OH2            10.9243996585       18.1409136227      -26.0947773236  TIP3      5671            0.0000000000
     39264      5863  TIP3      H1             11.0937083355       17.8503239475      -25.1784464375  TIP3      5671            0.0000000000
     39265      5863  TIP3      H2             11.7873274779       18.5103975253      -26.3623270468  TIP3      5671            0.0000000000
     39266      5864  TIP3      OH2            13.1889260627       19.4465938442      -26.8343294828  TIP3      5672            0.0000000000
     39267      5864  TIP3      H1             13.9189417358       18.8463284108      -27.0397278614  TIP3      5672            0.0000000000
     39268      5864  TIP3      H2             13.5236780230       19.8701733841      -26.0154454256  TIP3      5672            0.0000000000
     39269      5865  TIP3      OH2            18.2194311464        2.0744532702      -27.7272405313  TIP3      5673            0.0000000000
     39270      5865  TIP3      H1             17.3626262755        2.3283886338      -28.1145657853  TIP3      5673            0.0000000000
     39271      5865  TIP3      H2             18.3732635594        1.2386708233      -28.2218696587  TIP3      5673            0.0000000000
     39272      5866  TIP3      OH2             4.0076254108       19.9906927054      -29.0301855610  TIP3      5674            0.0000000000
     39273      5866  TIP3      H1              3.2750452314       20.4901666406      -29.4244880651  TIP3      5674            0.0000000000
     39274      5866  TIP3      H2              3.6897040495       19.7971846010      -28.1379848348  TIP3      5674            0.0000000000
     39275      5867  TIP3      OH2             6.4762772754       19.5693579619      -29.9526790331  TIP3      5675            0.0000000000
     39276      5867  TIP3      H1              5.5836503637       19.7118618674      -29.5578509516  TIP3      5675            0.0000000000
     39277      5867  TIP3      H2              6.4166926791       20.1579507379      -30.7291934777  TIP3      5675            0.0000000000
     39278      5868  TIP3      OH2            11.1810498839       19.4874361537      -30.7871237227  TIP3      5676            0.0000000000
     39279      5868  TIP3      H1             10.7168319692       20.0408166749      -31.4323518208  TIP3      5676            0.0000000000
     39280      5868  TIP3      H2             11.3100079834       20.1126942995      -30.0426819564  TIP3      5676            0.0000000000
     39281      5869  TIP3      OH2            13.4708955190       18.2921072187      -29.7817693234  TIP3      5677            0.0000000000
     39282      5869  TIP3      H1             12.6068169499       18.5667595326      -30.1247841338  TIP3      5677            0.0000000000
     39283      5869  TIP3      H2             13.9434701313       19.1390428236      -29.8637969440  TIP3      5677            0.0000000000
     39284      5870  TIP3      OH2            16.0593478160       19.8690652978      -29.5261532483  TIP3      5678            0.0000000000
     39285      5870  TIP3      H1             15.9945366474       20.8278886947      -29.7576837840  TIP3      5678            0.0000000000
     39286      5870  TIP3      H2             16.2708157389       19.4982316014      -30.4061375590  TIP3      5678            0.0000000000
     39287      5871  TIP3      OH2             3.4581838405       18.6400776679      -32.0834347386  TIP3      5679            0.0000000000
     39288      5871  TIP3      H1              3.3811440987       18.1810953122      -31.2187654760  TIP3      5679            0.0000000000
     39289      5871  TIP3      H2              4.2747503244       18.2682933477      -32.4738859379  TIP3      5679            0.0000000000
     39290      5872  TIP3      OH2             5.5411161854       17.3519177829      -33.4313194948  TIP3      5680            0.0000000000
     39291      5872  TIP3      H1              5.3725983102       16.4178743172      -33.2041555991  TIP3      5680            0.0000000000
     39292      5872  TIP3      H2              6.3967052167       17.5008361361      -32.9754650638  TIP3      5680            0.0000000000
     39293      5873  TIP3      OH2             8.1414288376       17.8378723175      -32.5546601186  TIP3      5681            0.0000000000
     39294      5873  TIP3      H1              8.3018270154       16.9140935693      -32.8195425839  TIP3      5681            0.0000000000
     39295      5873  TIP3      H2              8.1866266468       17.7776488093      -31.5901073039  TIP3      5681            0.0000000000
     39296      5874  TIP3      OH2            11.5954017656        3.4914209616      -33.4245482357  TIP3      5682            0.0000000000
     39297      5874  TIP3      H1             10.9265298009        2.8460489785      -33.1387040042  TIP3      5682            0.0000000000
     39298      5874  TIP3      H2             12.1538068959        2.9561363387      -34.0007413362  TIP3      5682            0.0000000000
     39299      5875  TIP3      OH2            16.7375740945        1.5290296579      -33.3533958292  TIP3      5683            0.0000000000
     39300      5875  TIP3      H1             17.3464897701        2.1276814374      -33.8516934248  TIP3      5683            0.0000000000
     39301      5875  TIP3      H2             15.8543820780        1.8924677829      -33.5698093724  TIP3      5683            0.0000000000
     39302      5876  TIP3      OH2            18.4086283662        2.7753475851      -35.0700260259  TIP3      5684            0.0000000000
     39303      5876  TIP3      H1             19.0942481647        2.2035445143      -35.4895416627  TIP3      5684            0.0000000000
     39304      5876  TIP3      H2             18.9081854672        3.6172136924      -34.9678178716  TIP3      5684            0.0000000000
     39305      5877  TIP3      OH2             3.9656395131        2.1123336311      -35.5662292940  TIP3      5685            0.0000000000
     39306      5877  TIP3      H1              3.1712582432        1.9098323686      -36.0980709815  TIP3      5685            0.0000000000
     39307      5877  TIP3      H2              4.4323299376        1.2573650978      -35.6234689534  TIP3      5685            0.0000000000
     39308      5878  TIP3      OH2             2.7166015884        1.8675291624      -39.8433062659  TIP3      5686            0.0000000000
     39309      5878  TIP3      H1              3.2201828767        2.5078278032      -40.3897329337  TIP3      5686            0.0000000000
     39310      5878  TIP3      H2              2.1691767760        2.4488166427      -39.2923452279  TIP3      5686            0.0000000000
     39311      5879  TIP3      OH2             8.4473770687        2.0362890655      -35.7833716434  TIP3      5687            0.0000000000
     39312      5879  TIP3      H1              9.3460907086        2.3999599945      -35.8477541671  TIP3      5687            0.0000000000
     39313      5879  TIP3      H2              8.4041218456        1.8202014314      -34.8529048042  TIP3      5687            0.0000000000
     39314      5880  TIP3      OH2            14.1470068892        2.0561511627      -34.1525387570  TIP3      5688            0.0000000000
     39315      5880  TIP3      H1             14.1081267671        2.1654088262      -35.1081592371  TIP3      5688            0.0000000000
     39316      5880  TIP3      H2             13.7708228493        1.1506554609      -34.0284665812  TIP3      5688            0.0000000000
     39317      5881  TIP3      OH2            15.4256574126        2.0812759352      -38.4980912556  TIP3      5689            0.0000000000
     39318      5881  TIP3      H1             14.6838920909        2.6843495724      -38.6533831527  TIP3      5689            0.0000000000
     39319      5881  TIP3      H2             14.9797442665        1.2291600947      -38.2774450656  TIP3      5689            0.0000000000
     39320      5882  TIP3      OH2             2.6614419214       17.8264986558      -38.8389442698  TIP3      5690            0.0000000000
     39321      5882  TIP3      H1              1.9816971317       17.8231244107      -39.5398278745  TIP3      5690            0.0000000000
     39322      5882  TIP3      H2              2.6806985337       18.7769107416      -38.6709189545  TIP3      5690            0.0000000000
     39323      5883  TIP3      OH2             4.5654765151        3.7335262693      -41.3098752745  TIP3      5691            0.0000000000
     39324      5883  TIP3      H1              5.1118314742        3.1819230592      -41.8666562387  TIP3      5691            0.0000000000
     39325      5883  TIP3      H2              5.2260831329        4.1465157603      -40.7241195816  TIP3      5691            0.0000000000
     39326      5884  TIP3      OH2             9.6008233783        4.0599962324      -38.9295952990  TIP3      5692            0.0000000000
     39327      5884  TIP3      H1              9.8551750242        3.4797011911      -38.1942862472  TIP3      5692            0.0000000000
     39328      5884  TIP3      H2              9.6566243146        4.9228122427      -38.4569042598  TIP3      5692            0.0000000000
     39329      5885  TIP3      OH2            11.4843628841       19.3845306694      -40.4546834798  TIP3      5693            0.0000000000
     39330      5885  TIP3      H1             12.4461436741       19.4005600755      -40.6240057323  TIP3      5693            0.0000000000
     39331      5885  TIP3      H2             11.3158553274       18.6780197518      -41.1268202712  TIP3      5693            0.0000000000
     39332      5886  TIP3      OH2            18.2300629152       18.6320191117      -37.7741117217  TIP3      5694            0.0000000000
     39333      5886  TIP3      H1             18.0283632129       17.8564499191      -38.3518988551  TIP3      5694            0.0000000000
     39334      5886  TIP3      H2             18.1452901918       19.3677066336      -38.4093063757  TIP3      5694            0.0000000000
     39335      5887  TIP3      OH2             3.8419099304        2.6591223897      -26.1094261073  TIP3      5695            0.0000000000
     39336      5887  TIP3      H1              3.4636159090        1.8585190703      -25.7046524254  TIP3      5695            0.0000000000
     39337      5887  TIP3      H2              4.7601076585        2.6098314684      -25.7656147955  TIP3      5695            0.0000000000
     39338      5888  TIP3      OH2             5.8727493502        2.0382640294      -24.4811492592  TIP3      5696            0.0000000000
     39339      5888  TIP3      H1              6.7660024952        1.7178710840      -24.7182094581  TIP3      5696            0.0000000000
     39340      5888  TIP3      H2              5.5157667075        1.2150668583      -24.1001472446  TIP3      5696            0.0000000000
     39341      5889  TIP3      OH2             4.4850044513       18.7985721403      -41.8740745055  TIP3      5697            0.0000000000
     39342      5889  TIP3      H1              4.1860679797       19.0663158370      -40.9964074523  TIP3      5697            0.0000000000
     39343      5889  TIP3      H2              5.2430670807       18.2398050422      -41.7071005282  TIP3      5697            0.0000000000
     39344      5890  TIP3      OH2            17.4727688657       17.3752752681      -25.6872627841  TIP3      5698            0.0000000000
     39345      5890  TIP3      H1             16.6650911677       17.2295710397      -26.2222749466  TIP3      5698            0.0000000000
     39346      5890  TIP3      H2             17.3985997559       18.3116842640      -25.4804898456  TIP3      5698            0.0000000000
     39347      5891  TIP3      OH2            31.9077661428       11.2394955740      -35.7013698416  TIP3      5699            0.0000000000
     39348      5891  TIP3      H1             31.9212879792       12.2222633636      -35.7486358134  TIP3      5699            0.0000000000
     39349      5891  TIP3      H2             31.1872876765       11.0142608804      -36.3116056062  TIP3      5699            0.0000000000
     39350      5892  TIP3      OH2            30.7703222822       10.5088585408      -32.2123186089  TIP3      5700            0.0000000000
     39351      5892  TIP3      H1             30.7515761414        9.8590077450      -31.4957074090  TIP3      5700            0.0000000000
     39352      5892  TIP3      H2             30.4472448197       10.0032527083      -32.9736241314  TIP3      5700            0.0000000000
     39353      5893  TIP3      OH2            23.1236182917       10.1791120886      -30.6557910879  TIP3      5701            0.0000000000
     39354      5893  TIP3      H1             23.2072304977        9.4966480437      -29.9566243224  TIP3      5701            0.0000000000
     39355      5893  TIP3      H2             23.8709488897       10.7534361028      -30.4364414829  TIP3      5701            0.0000000000
     39356      5894  TIP3      OH2            34.4788110316       13.4434159477      -33.9202643357  TIP3      5702            0.0000000000
     39357      5894  TIP3      H1             34.0544461635       12.7293072217      -33.4334804474  TIP3      5702            0.0000000000
     39358      5894  TIP3      H2             34.4806157305       14.1584976708      -33.2638043579  TIP3      5702            0.0000000000
     39359      5895  TIP3      OH2            24.0506772801       14.6281571797      -32.1518124800  TIP3      5703            0.0000000000
     39360      5895  TIP3      H1             23.7344211843       13.7624271929      -32.4749083208  TIP3      5703            0.0000000000
     39361      5895  TIP3      H2             25.0055155509       14.4410019409      -32.1029720055  TIP3      5703            0.0000000000
     39362      5896  TIP3      OH2            20.6871512003        8.1936739237      -36.6724978177  TIP3      5704            0.0000000000
     39363      5896  TIP3      H1             20.2597215686        9.0643889952      -36.7223606442  TIP3      5704            0.0000000000
     39364      5896  TIP3      H2             20.1292209159        7.6441934780      -37.2396402189  TIP3      5704            0.0000000000
     39365      5897  TIP3      OH2            21.3960749738       10.4115856221      -34.5295995558  TIP3      5705            0.0000000000
     39366      5897  TIP3      H1             21.6663323062        9.5955786731      -34.0685329361  TIP3      5705            0.0000000000
     39367      5897  TIP3      H2             22.1015939727       10.5155032548      -35.1855022158  TIP3      5705            0.0000000000
     39368      5898  TIP3      OH2            31.6022499467       18.6201307612      -33.7004168570  TIP3      5706            0.0000000000
     39369      5898  TIP3      H1             32.2157917062       17.8942582046      -33.9729809764  TIP3      5706            0.0000000000
     39370      5898  TIP3      H2             31.3566459729       18.2914105772      -32.8309440625  TIP3      5706            0.0000000000
     39371      5899  TIP3      OH2            29.1476833490       12.9119548358      -31.7450462177  TIP3      5707            0.0000000000
     39372      5899  TIP3      H1             29.4841514125       12.2779448613      -32.3992799586  TIP3      5707            0.0000000000
     39373      5899  TIP3      H2             29.9526695716       13.0644775441      -31.2216151082  TIP3      5707            0.0000000000
     39374      5900  TIP3      OH2            32.3202980105        7.3759957403      -31.4348641696  TIP3      5708            0.0000000000
     39375      5900  TIP3      H1             32.4837759532        6.4166418179      -31.4471754709  TIP3      5708            0.0000000000
     39376      5900  TIP3      H2             32.2214795915        7.5278134381      -32.3947669863  TIP3      5708            0.0000000000
     39377      5901  TIP3      OH2            25.4263981063        5.4646568504      -34.2085447084  TIP3      5709            0.0000000000
     39378      5901  TIP3      H1             25.5299171344        6.3018990235      -34.6967953858  TIP3      5709            0.0000000000
     39379      5901  TIP3      H2             25.0252731453        4.8908406574      -34.8969303560  TIP3      5709            0.0000000000
     39380      5902  TIP3      OH2            33.1924086985        5.5823459836      -35.8277331910  TIP3      5710            0.0000000000
     39381      5902  TIP3      H1             33.8403047797        5.2280972885      -35.1706863696  TIP3      5710            0.0000000000
     39382      5902  TIP3      H2             33.7764072284        6.1062365730      -36.3823636856  TIP3      5710            0.0000000000
     39383      5903  TIP3      OH2            22.0529293050        7.8727014468      -33.4729811751  TIP3      5711            0.0000000000
     39384      5903  TIP3      H1             22.7238750171        7.3248749819      -33.0226197721  TIP3      5711            0.0000000000
     39385      5903  TIP3      H2             22.1521788735        7.5604736876      -34.3853050605  TIP3      5711            0.0000000000
     39386      5904  TIP3      OH2            27.2116458897        9.4299737908      -34.1652190994  TIP3      5712            0.0000000000
     39387      5904  TIP3      H1             27.8780423900        8.8498545689      -33.7587963764  TIP3      5712            0.0000000000
     39388      5904  TIP3      H2             26.6909545888        8.7695313395      -34.6629624055  TIP3      5712            0.0000000000
     39389      5905  TIP3      OH2            24.3297295447        4.3629159458      -30.1668903735  TIP3      5713            0.0000000000
     39390      5905  TIP3      H1             24.0514021272        4.9317110311      -30.9148715347  TIP3      5713            0.0000000000
     39391      5905  TIP3      H2             23.6503797640        4.5934722258      -29.4875981482  TIP3      5713            0.0000000000
     39392      5906  TIP3      OH2            31.6173370938       13.8380837975      -36.6282031353  TIP3      5714            0.0000000000
     39393      5906  TIP3      H1             31.3505312328       13.5664921730      -37.5171768679  TIP3      5714            0.0000000000
     39394      5906  TIP3      H2             31.3113628471       14.7691063097      -36.5733134280  TIP3      5714            0.0000000000
     39395      5907  TIP3      OH2            26.8521082131       12.0073785059      -29.9228118219  TIP3      5715            0.0000000000
     39396      5907  TIP3      H1             26.1411945415       12.6497777569      -29.7163106588  TIP3      5715            0.0000000000
     39397      5907  TIP3      H2             27.5556406851       12.6054252860      -30.2148599247  TIP3      5715            0.0000000000
     39398      5908  TIP3      OH2            34.6798254314        4.8578930362      -33.7238722443  TIP3      5716            0.0000000000
     39399      5908  TIP3      H1             34.7224017912        4.0501848812      -33.2241514624  TIP3      5716            0.0000000000
     39400      5908  TIP3      H2             35.4554354834        5.3360901775      -33.3455524843  TIP3      5716            0.0000000000
     39401      5909  TIP3      OH2            23.8959924390        6.2228008443      -32.1420014649  TIP3      5717            0.0000000000
     39402      5909  TIP3      H1             24.5283543728        6.9061645482      -31.8265559483  TIP3      5717            0.0000000000
     39403      5909  TIP3      H2             24.4177607657        5.8052028160      -32.8722827578  TIP3      5717            0.0000000000
     39404      5910  TIP3      OH2            25.2879037351       14.0064589433      -29.1156728565  TIP3      5718            0.0000000000
     39405      5910  TIP3      H1             25.2488940604       14.9246239771      -29.4427889948  TIP3      5718            0.0000000000
     39406      5910  TIP3      H2             24.4133872071       13.9359321825      -28.6567850946  TIP3      5718            0.0000000000
     39407      5911  TIP3      OH2            21.3173926397       13.6163006329      -38.3224255118  TIP3      5719            0.0000000000
     39408      5911  TIP3      H1             21.1657360625       13.9687592840      -39.2202907940  TIP3      5719            0.0000000000
     39409      5911  TIP3      H2             21.4332992031       14.4470557833      -37.8080813090  TIP3      5719            0.0000000000
     39410      5912  TIP3      OH2            34.7904129270       15.2227591466      -31.4707562243  TIP3      5720            0.0000000000
     39411      5912  TIP3      H1             33.8357053797       15.4293132165      -31.4184510464  TIP3      5720            0.0000000000
     39412      5912  TIP3      H2             35.1776048372       16.0734058878      -31.7602546751  TIP3      5720            0.0000000000
     39413      5913  TIP3      OH2            35.1033295038        3.6772120696      -30.4365560039  TIP3      5721            0.0000000000
     39414      5913  TIP3      H1             34.4371462459        4.3766534111      -30.2753156534  TIP3      5721            0.0000000000
     39415      5913  TIP3      H2             35.8777062317        4.1802797235      -30.7199012697  TIP3      5721            0.0000000000
     39416      5914  TIP3      OH2            28.2946700089        1.6858695276      -32.6926191103  TIP3      5722            0.0000000000
     39417      5914  TIP3      H1             28.1315997598        0.7276793000      -32.7715232159  TIP3      5722            0.0000000000
     39418      5914  TIP3      H2             27.4133251078        2.0040846826      -32.4028893222  TIP3      5722            0.0000000000
     39419      5915  TIP3      OH2            33.1913356707       17.0125760845      -34.9399338499  TIP3      5723            0.0000000000
     39420      5915  TIP3      H1             33.6486591761       16.3194432882      -35.4608120256  TIP3      5723            0.0000000000
     39421      5915  TIP3      H2             33.5966116428       17.8168390481      -35.3218123562  TIP3      5723            0.0000000000
     39422      5916  TIP3      OH2            34.4379840428       15.0015077112      -36.4497135193  TIP3      5724            0.0000000000
     39423      5916  TIP3      H1             34.1888495959       14.2936241518      -37.0628857159  TIP3      5724            0.0000000000
     39424      5916  TIP3      H2             34.5015042287       14.4947768086      -35.6145068430  TIP3      5724            0.0000000000
     39425      5917  TIP3      OH2            35.8156018312       13.7311631146      -27.8446417546  TIP3      5725            0.0000000000
     39426      5917  TIP3      H1             36.0939601651       13.0369037559      -28.4750158632  TIP3      5725            0.0000000000
     39427      5917  TIP3      H2             36.2343769311       14.4863012785      -28.2957554530  TIP3      5725            0.0000000000
     39428      5918  TIP3      OH2            30.5528227110       10.4945220043      -38.2092493456  TIP3      5726            0.0000000000
     39429      5918  TIP3      H1             29.8672110168       11.0739683179      -38.5962738282  TIP3      5726            0.0000000000
     39430      5918  TIP3      H2             31.2716471087       10.5768062501      -38.8623257305  TIP3      5726            0.0000000000
     39431      5919  TIP3      OH2            30.6220888023        9.0121597242      -41.1211638119  TIP3      5727            0.0000000000
     39432      5919  TIP3      H1             31.3506898039        9.0208071542      -40.4834036318  TIP3      5727            0.0000000000
     39433      5919  TIP3      H2             30.9518184021        8.3704439487      -41.7601747565  TIP3      5727            0.0000000000
     39434      5920  TIP3      OH2            33.9831174584       10.7071047634      -37.3009240407  TIP3      5728            0.0000000000
     39435      5920  TIP3      H1             33.2641908732       10.9576667652      -36.6739938882  TIP3      5728            0.0000000000
     39436      5920  TIP3      H2             34.4650994700       10.0601005788      -36.7381662517  TIP3      5728            0.0000000000
     39437      5921  TIP3      OH2            33.9582118731        8.8769199406      -28.1786712462  TIP3      5729            0.0000000000
     39438      5921  TIP3      H1             33.9190352644        9.6743648004      -27.6259418098  TIP3      5729            0.0000000000
     39439      5921  TIP3      H2             33.3160801112        9.1507618825      -28.8603863797  TIP3      5729            0.0000000000
     39440      5922  TIP3      OH2            25.6246383843       11.3576432758      -35.3583897683  TIP3      5730            0.0000000000
     39441      5922  TIP3      H1             25.3066094210       10.9661537962      -36.2053865570  TIP3      5730            0.0000000000
     39442      5922  TIP3      H2             26.2408018247       10.6675558100      -35.0223610575  TIP3      5730            0.0000000000
     39443      5923  TIP3      OH2            26.9525189436       14.7472450553      -32.6762200342  TIP3      5731            0.0000000000
     39444      5923  TIP3      H1             26.9395949368       14.2141292857      -33.4800607233  TIP3      5731            0.0000000000
     39445      5923  TIP3      H2             27.7327202772       14.3875478153      -32.2155334192  TIP3      5731            0.0000000000
     39446      5924  TIP3      OH2            25.9608847804       10.1045234710      -31.6990169665  TIP3      5732            0.0000000000
     39447      5924  TIP3      H1             26.5160753028       10.2093313830      -32.4965174887  TIP3      5732            0.0000000000
     39448      5924  TIP3      H2             26.3433647231       10.7686333652      -31.0846423557  TIP3      5732            0.0000000000
     39449      5925  TIP3      OH2            32.3095115497       15.6855828036      -30.9944492358  TIP3      5733            0.0000000000
     39450      5925  TIP3      H1             32.0884406716       16.3162485748      -30.3108961741  TIP3      5733            0.0000000000
     39451      5925  TIP3      H2             32.1135800594       14.8159545179      -30.5674680882  TIP3      5733            0.0000000000
     39452      5926  TIP3      OH2            26.8954861018       14.5218786287      -26.9696958516  TIP3      5734            0.0000000000
     39453      5926  TIP3      H1             26.5104391204       15.2962647370      -26.5208965988  TIP3      5734            0.0000000000
     39454      5926  TIP3      H2             26.2390890814       14.3351193838      -27.6851194777  TIP3      5734            0.0000000000
     39455      5927  TIP3      OH2            32.8937474713        9.8649906244      -39.5970365369  TIP3      5735            0.0000000000
     39456      5927  TIP3      H1             33.4272684106       10.0939692318      -38.7956848914  TIP3      5735            0.0000000000
     39457      5927  TIP3      H2             33.2724728664       10.4286498701      -40.2955886985  TIP3      5735            0.0000000000
     39458      5928  TIP3      OH2            23.8465114683       10.6987938217      -27.8172698966  TIP3      5736            0.0000000000
     39459      5928  TIP3      H1             23.8850716250       11.3654275297      -27.1009702944  TIP3      5736            0.0000000000
     39460      5928  TIP3      H2             22.9168199673       10.7954592582      -28.0744538063  TIP3      5736            0.0000000000
     39461      5929  TIP3      OH2            30.5959564210       16.6161875923      -36.1284812310  TIP3      5737            0.0000000000
     39462      5929  TIP3      H1             31.0335602701       16.9269828994      -35.3261498903  TIP3      5737            0.0000000000
     39463      5929  TIP3      H2             30.0410812550       17.3630480260      -36.3829935068  TIP3      5737            0.0000000000
     39464      5930  TIP3      OH2            25.1139398419       16.5698412420      -26.2372694296  TIP3      5738            0.0000000000
     39465      5930  TIP3      H1             25.1219822232       16.4653786285      -27.2087451206  TIP3      5738            0.0000000000
     39466      5930  TIP3      H2             24.1778930384       16.4287193081      -26.0317447565  TIP3      5738            0.0000000000
     39467      5931  TIP3      OH2            24.5942060620       10.3880933828      -37.7427010692  TIP3      5739            0.0000000000
     39468      5931  TIP3      H1             24.3177192337       11.1621730922      -38.2711315442  TIP3      5739            0.0000000000
     39469      5931  TIP3      H2             23.9436876709        9.7212481332      -37.9738264938  TIP3      5739            0.0000000000
     39470      5932  TIP3      OH2            20.7083884097       12.8064876871      -28.8853241564  TIP3      5740            0.0000000000
     39471      5932  TIP3      H1             20.2357049163       12.7244113832      -29.7300801271  TIP3      5740            0.0000000000
     39472      5932  TIP3      H2             20.7584009837       11.8664841175      -28.6307215288  TIP3      5740            0.0000000000
     39473      5933  TIP3      OH2            20.4505882143       15.5455112703      -32.0686195350  TIP3      5741            0.0000000000
     39474      5933  TIP3      H1             21.4087904647       15.4281412434      -32.0870252751  TIP3      5741            0.0000000000
     39475      5933  TIP3      H2             20.3660653237       16.3602634173      -31.5585162270  TIP3      5741            0.0000000000
     39476      5934  TIP3      OH2            29.6575019605       15.7928869434      -27.5122426499  TIP3      5742            0.0000000000
     39477      5934  TIP3      H1             29.7046449349       16.6366428477      -27.0059891582  TIP3      5742            0.0000000000
     39478      5934  TIP3      H2             28.7883494424       15.4325509104      -27.2587227866  TIP3      5742            0.0000000000
     39479      5935  TIP3      OH2            30.0824125277       19.5340498490      -37.7181834359  TIP3      5743            0.0000000000
     39480      5935  TIP3      H1             30.0075578644       19.4679227911      -38.6869550064  TIP3      5743            0.0000000000
     39481      5935  TIP3      H2             30.1234702371       20.4983429472      -37.5660509718  TIP3      5743            0.0000000000
     39482      5936  TIP3      OH2            23.7257156555       18.4106627813      -35.8995553793  TIP3      5744            0.0000000000
     39483      5936  TIP3      H1             23.8701538015       18.0002733552      -35.0186069054  TIP3      5744            0.0000000000
     39484      5936  TIP3      H2             22.8764511262       18.0044951414      -36.1377983099  TIP3      5744            0.0000000000
     39485      5937  TIP3      OH2            33.1040736750       18.7198298493      -40.7624780476  TIP3      5745            0.0000000000
     39486      5937  TIP3      H1             33.6050936051       17.9808098713      -41.1699944358  TIP3      5745            0.0000000000
     39487      5937  TIP3      H2             33.1618570408       18.4950160906      -39.8145006330  TIP3      5745            0.0000000000
     39488      5938  TIP3      OH2            32.8183568546       18.6867609722      -37.9214492274  TIP3      5746            0.0000000000
     39489      5938  TIP3      H1             31.8514671750       18.7405763363      -37.7736593010  TIP3      5746            0.0000000000
     39490      5938  TIP3      H2             33.0467144233       17.9095105398      -37.3925493805  TIP3      5746            0.0000000000
     39491      5939  TIP3      OH2            35.3571146998        7.8829326656      -25.8876013168  TIP3      5747            0.0000000000
     39492      5939  TIP3      H1             35.3269647098        8.2541726616      -26.7709212678  TIP3      5747            0.0000000000
     39493      5939  TIP3      H2             35.8772653043        7.0518880634      -26.0692237790  TIP3      5747            0.0000000000
     39494      5940  TIP3      OH2            22.9519590067       14.1263241860      -27.8993536357  TIP3      5748            0.0000000000
     39495      5940  TIP3      H1             23.1812539884       13.7403280420      -27.0262570870  TIP3      5748            0.0000000000
     39496      5940  TIP3      H2             22.0952210547       13.7138472762      -28.1273131391  TIP3      5748            0.0000000000
     39497      5941  TIP3      OH2            25.6504748264        2.5955025309      -31.9508293580  TIP3      5749            0.0000000000
     39498      5941  TIP3      H1             24.7468629983        2.4762673585      -32.3201232331  TIP3      5749            0.0000000000
     39499      5941  TIP3      H2             25.5246892745        3.4307352226      -31.4717848305  TIP3      5749            0.0000000000
     39500      5942  TIP3      OH2            30.3159696681        2.2486821590      -28.5961475970  TIP3      5750            0.0000000000
     39501      5942  TIP3      H1             30.6862989018        1.8673130631      -27.7791600732  TIP3      5750            0.0000000000
     39502      5942  TIP3      H2             29.3412857149        2.1566777264      -28.4515155129  TIP3      5750            0.0000000000
     39503      5943  TIP3      OH2            33.5377970326        6.0759620504      -27.7429697526  TIP3      5751            0.0000000000
     39504      5943  TIP3      H1             33.0230380969        5.9119164848      -26.9218786296  TIP3      5751            0.0000000000
     39505      5943  TIP3      H2             33.4334116220        7.0256617540      -27.8989784531  TIP3      5751            0.0000000000
     39506      5944  TIP3      OH2            34.4810950089       10.8727122338      -41.8048202768  TIP3      5752            0.0000000000
     39507      5944  TIP3      H1             34.4326768341       10.7905240549      -42.7717006273  TIP3      5752            0.0000000000
     39508      5944  TIP3      H2             35.2337756720       11.4606745083      -41.7111360033  TIP3      5752            0.0000000000
     39509      5945  TIP3      OH2            29.9262556928        4.8402871276      -41.2477316682  TIP3      5753            0.0000000000
     39510      5945  TIP3      H1             29.6225010590        4.7907058273      -40.3246562750  TIP3      5753            0.0000000000
     39511      5945  TIP3      H2             29.6614405592        3.9592370482      -41.5370094531  TIP3      5753            0.0000000000
     39512      5946  TIP3      OH2            25.7567888350        7.5701854849      -30.7066926803  TIP3      5754            0.0000000000
     39513      5946  TIP3      H1             25.0186570962        7.5549739973      -30.0682225338  TIP3      5754            0.0000000000
     39514      5946  TIP3      H2             25.7087200462        8.4808608695      -31.0719240101  TIP3      5754            0.0000000000
     39515      5947  TIP3      OH2            25.7095844916        7.6953283863      -35.8415412441  TIP3      5755            0.0000000000
     39516      5947  TIP3      H1             24.7766016912        7.4343075978      -35.9736765967  TIP3      5755            0.0000000000
     39517      5947  TIP3      H2             26.0969007029        7.3975747787      -36.6884370856  TIP3      5755            0.0000000000
     39518      5948  TIP3      OH2            31.2488126815        8.1839903150      -37.0806409313  TIP3      5756            0.0000000000
     39519      5948  TIP3      H1             30.8275190393        9.0124876762      -37.4048667411  TIP3      5756            0.0000000000
     39520      5948  TIP3      H2             31.9324593285        8.0330061781      -37.7524282607  TIP3      5756            0.0000000000
     39521      5949  TIP3      OH2            30.3236543677        8.3874540851      -25.6376677268  TIP3      5757            0.0000000000
     39522      5949  TIP3      H1             29.7751509655        7.6355095471      -25.3030112289  TIP3      5757            0.0000000000
     39523      5949  TIP3      H2             31.1429940870        8.2902376038      -25.1269400364  TIP3      5757            0.0000000000
     39524      5950  TIP3      OH2            32.2384078117        7.6873942127      -34.2054555740  TIP3      5758            0.0000000000
     39525      5950  TIP3      H1             32.0104830338        8.2402450604      -34.9731254799  TIP3      5758            0.0000000000
     39526      5950  TIP3      H2             32.3704430382        6.8346134795      -34.6684727086  TIP3      5758            0.0000000000
     39527      5951  TIP3      OH2            23.3812424434        7.8295855657      -29.0146348982  TIP3      5759            0.0000000000
     39528      5951  TIP3      H1             23.4476914054        8.2364148624      -28.1332103824  TIP3      5759            0.0000000000
     39529      5951  TIP3      H2             22.9350930356        6.9918833607      -28.8119356462  TIP3      5759            0.0000000000
     39530      5952  TIP3      OH2            26.9365474623        5.4432969790      -41.8525624252  TIP3      5760            0.0000000000
     39531      5952  TIP3      H1             26.3981468341        4.8292131792      -41.3122792314  TIP3      5760            0.0000000000
     39532      5952  TIP3      H2             26.3198859417        5.8132527761      -42.4808873866  TIP3      5760            0.0000000000
     39533      5953  TIP3      OH2            20.0342208887        4.9402534918      -35.0433214202  TIP3      5761            0.0000000000
     39534      5953  TIP3      H1             20.7137882511        4.9011400687      -34.3380205002  TIP3      5761            0.0000000000
     39535      5953  TIP3      H2             20.4846931250        4.5562062366      -35.8168923222  TIP3      5761            0.0000000000
     39536      5954  TIP3      OH2            21.3255234147        5.6634425569      -39.6676854370  TIP3      5762            0.0000000000
     39537      5954  TIP3      H1             21.8151041256        6.2587247036      -40.2733898023  TIP3      5762            0.0000000000
     39538      5954  TIP3      H2             20.6322818557        6.2768990564      -39.3524018409  TIP3      5762            0.0000000000
     39539      5955  TIP3      OH2            31.4589308458        9.2610610746      -29.6650264448  TIP3      5763            0.0000000000
     39540      5955  TIP3      H1             31.8444436894        8.5724355709      -30.2479810409  TIP3      5763            0.0000000000
     39541      5955  TIP3      H2             30.9980067464        8.7351051263      -28.9879314539  TIP3      5763            0.0000000000
     39542      5956  TIP3      OH2            28.2694191539        5.2305200235      -34.8274711421  TIP3      5764            0.0000000000
     39543      5956  TIP3      H1             27.3311322541        5.2475808047      -34.5292025048  TIP3      5764            0.0000000000
     39544      5956  TIP3      H2             28.7637302781        5.0841339155      -34.0070421428  TIP3      5764            0.0000000000
     39545      5957  TIP3      OH2            23.0801341705        6.7970198307      -35.9633266849  TIP3      5765            0.0000000000
     39546      5957  TIP3      H1             22.1943033563        6.9457264703      -36.3520073761  TIP3      5765            0.0000000000
     39547      5957  TIP3      H2             23.3670139707        5.9618860738      -36.3679643692  TIP3      5765            0.0000000000
     39548      5958  TIP3      OH2            26.7178172462        6.8596161914      -38.3259263823  TIP3      5766            0.0000000000
     39549      5958  TIP3      H1             27.6771175808        6.9560518958      -38.1643172440  TIP3      5766            0.0000000000
     39550      5958  TIP3      H2             26.4913285224        7.5074244684      -39.0148788509  TIP3      5766            0.0000000000
     39551      5959  TIP3      OH2            32.6187550042        4.3751329570      -31.5691016551  TIP3      5767            0.0000000000
     39552      5959  TIP3      H1             31.9528010410        4.5369274778      -30.8730876944  TIP3      5767            0.0000000000
     39553      5959  TIP3      H2             32.1095623285        4.2687796863      -32.3864914304  TIP3      5767            0.0000000000
     39554      5960  TIP3      OH2            25.4184519070        8.0121984827      -40.7387482906  TIP3      5768            0.0000000000
     39555      5960  TIP3      H1             24.8646492916        7.6633232164      -41.4592741729  TIP3      5768            0.0000000000
     39556      5960  TIP3      H2             26.2454172209        8.2298448542      -41.1987526302  TIP3      5768            0.0000000000
     39557      5961  TIP3      OH2            35.7806098210       20.1775675994      -25.2042314342  TIP3      5769            0.0000000000
     39558      5961  TIP3      H1             36.0805385551       20.4828297588      -26.0864820035  TIP3      5769            0.0000000000
     39559      5961  TIP3      H2             36.5627726186       20.4182533977      -24.6965916440  TIP3      5769            0.0000000000
     39560      5962  TIP3      OH2            23.5863612185       12.5776638891      -25.6910306184  TIP3      5770            0.0000000000
     39561      5962  TIP3      H1             24.2713767206       12.8423724138      -25.0612366638  TIP3      5770            0.0000000000
     39562      5962  TIP3      H2             22.7851289109       12.6860575363      -25.1257616625  TIP3      5770            0.0000000000
     39563      5963  TIP3      OH2            29.5521999203        7.9959177375      -32.9376562976  TIP3      5771            0.0000000000
     39564      5963  TIP3      H1             30.1546477712        7.4623137270      -33.4717523710  TIP3      5771            0.0000000000
     39565      5963  TIP3      H2             29.4093947398        7.4510935170      -32.1526309887  TIP3      5771            0.0000000000
     39566      5964  TIP3      OH2            24.5672620941        4.1392483782      -36.4965622857  TIP3      5772            0.0000000000
     39567      5964  TIP3      H1             24.2532901586        3.2181499928      -36.5147809419  TIP3      5772            0.0000000000
     39568      5964  TIP3      H2             25.3548022842        4.0684319649      -37.0553450686  TIP3      5772            0.0000000000
     39569      5965  TIP3      OH2            28.1941393637        6.3229307231      -30.5229203531  TIP3      5773            0.0000000000
     39570      5965  TIP3      H1             27.3683797627        6.8415856633      -30.4320738907  TIP3      5773            0.0000000000
     39571      5965  TIP3      H2             28.7459478456        6.6759423643      -29.7973388015  TIP3      5773            0.0000000000
     39572      5966  TIP3      OH2            28.7862335123       12.5370582787      -38.8053178034  TIP3      5774            0.0000000000
     39573      5966  TIP3      H1             27.9855749259       12.0790902968      -39.1451793323  TIP3      5774            0.0000000000
     39574      5966  TIP3      H2             28.5622062730       12.6557211324      -37.8629899064  TIP3      5774            0.0000000000
     39575      5967  TIP3      OH2            35.6638400455       11.7468264513      -30.0270812580  TIP3      5775            0.0000000000
     39576      5967  TIP3      H1             36.3944451935       11.9292189793      -30.6694070672  TIP3      5775            0.0000000000
     39577      5967  TIP3      H2             34.9042091775       11.7855579113      -30.6327445720  TIP3      5775            0.0000000000
     39578      5968  TIP3      OH2            32.6550449933        5.3394127595      -40.6124452716  TIP3      5776            0.0000000000
     39579      5968  TIP3      H1             31.7102506372        5.4769917116      -40.8103359186  TIP3      5776            0.0000000000
     39580      5968  TIP3      H2             32.9348793567        6.2307208145      -40.3339109898  TIP3      5776            0.0000000000
     39581      5969  TIP3      OH2            30.2853972743       12.8105552779      -27.5842453970  TIP3      5777            0.0000000000
     39582      5969  TIP3      H1             29.9303068530       12.3944532126      -26.7900641195  TIP3      5777            0.0000000000
     39583      5969  TIP3      H2             30.0465822855       13.7363151794      -27.4832416820  TIP3      5777            0.0000000000
     39584      5970  TIP3      OH2            33.3585840896        7.2950132907      -39.0195905238  TIP3      5778            0.0000000000
     39585      5970  TIP3      H1             34.2332126378        7.1598518875      -38.6048588086  TIP3      5778            0.0000000000
     39586      5970  TIP3      H2             33.4355935230        8.1325669687      -39.4967600459  TIP3      5778            0.0000000000
     39587      5971  TIP3      OH2            23.8860107933       11.9383039364      -33.0298902876  TIP3      5779            0.0000000000
     39588      5971  TIP3      H1             24.5804920028       11.8627312832      -33.7124023579  TIP3      5779            0.0000000000
     39589      5971  TIP3      H2             23.9496695401       11.0807936162      -32.5723959175  TIP3      5779            0.0000000000
     39590      5972  TIP3      OH2            30.8695984061       14.0264696473      -39.7697720970  TIP3      5780            0.0000000000
     39591      5972  TIP3      H1             30.5122647677       14.8697963562      -39.4229422137  TIP3      5780            0.0000000000
     39592      5972  TIP3      H2             30.1387298541       13.3960796066      -39.5838363619  TIP3      5780            0.0000000000
     39593      5973  TIP3      OH2            20.8847472423       10.3425339529      -27.7674597550  TIP3      5781            0.0000000000
     39594      5973  TIP3      H1             21.0543040734        9.9096084872      -26.9128457875  TIP3      5781            0.0000000000
     39595      5973  TIP3      H2             20.2579032993        9.7285037913      -28.1908711088  TIP3      5781            0.0000000000
     39596      5974  TIP3      OH2            27.8938748410        9.9097565168      -25.5939849373  TIP3      5782            0.0000000000
     39597      5974  TIP3      H1             27.5807749286        9.6061399077      -26.4586165977  TIP3      5782            0.0000000000
     39598      5974  TIP3      H2             28.8197066423        9.6016620733      -25.5961423484  TIP3      5782            0.0000000000
     39599      5975  TIP3      OH2            32.5712150102       15.2235371206      -27.6328911163  TIP3      5783            0.0000000000
     39600      5975  TIP3      H1             31.6542702275       15.4043844348      -27.8952023427  TIP3      5783            0.0000000000
     39601      5975  TIP3      H2             32.5315878678       15.5193258951      -26.7135667188  TIP3      5783            0.0000000000
     39602      5976  TIP3      OH2            33.6908566489       11.0473900560      -31.7410769944  TIP3      5784            0.0000000000
     39603      5976  TIP3      H1             32.7539470317       10.8266457167      -31.8703261309  TIP3      5784            0.0000000000
     39604      5976  TIP3      H2             34.1673508008       10.3051887130      -32.1534947483  TIP3      5784            0.0000000000
     39605      5977  TIP3      OH2            26.2623079893       15.3973669269      -35.6437060519  TIP3      5785            0.0000000000
     39606      5977  TIP3      H1             26.7633828022       16.2024318737      -35.8494181190  TIP3      5785            0.0000000000
     39607      5977  TIP3      H2             25.3826899701       15.6311597424      -35.9703849323  TIP3      5785            0.0000000000
     39608      5978  TIP3      OH2            21.9950633942       10.2518701089      -41.1055556756  TIP3      5786            0.0000000000
     39609      5978  TIP3      H1             22.6197737175       10.8787130380      -40.6940253957  TIP3      5786            0.0000000000
     39610      5978  TIP3      H2             21.1346288972       10.5451946544      -40.7830796587  TIP3      5786            0.0000000000
     39611      5979  TIP3      OH2            27.6829588529       13.0592305635      -36.1132588294  TIP3      5787            0.0000000000
     39612      5979  TIP3      H1             27.3728634660       13.9827297226      -36.0378297955  TIP3      5787            0.0000000000
     39613      5979  TIP3      H2             26.9538877991       12.5751261206      -35.6778341447  TIP3      5787            0.0000000000
     39614      5980  TIP3      OH2            28.1342659220       17.2408860932      -29.7306493227  TIP3      5788            0.0000000000
     39615      5980  TIP3      H1             28.5817874242       18.0600617736      -29.9951929040  TIP3      5788            0.0000000000
     39616      5980  TIP3      H2             28.7340396401       16.9101199937      -29.0377415454  TIP3      5788            0.0000000000
     39617      5981  TIP3      OH2            26.3688006335       18.0599215503      -36.5898724982  TIP3      5789            0.0000000000
     39618      5981  TIP3      H1             25.4009073288       18.1938430335      -36.4576410212  TIP3      5789            0.0000000000
     39619      5981  TIP3      H2             26.7191773540       18.8980991246      -36.2359712226  TIP3      5789            0.0000000000
     39620      5982  TIP3      OH2            31.6805750850       13.2546667532      -30.0971027824  TIP3      5790            0.0000000000
     39621      5982  TIP3      H1             31.3226825441       13.0541622604      -29.2056054138  TIP3      5790            0.0000000000
     39622      5982  TIP3      H2             32.3031066055       12.5308039809      -30.2642886633  TIP3      5790            0.0000000000
     39623      5983  TIP3      OH2            33.9527735698       14.2529027390      -41.0018199723  TIP3      5791            0.0000000000
     39624      5983  TIP3      H1             34.2724303904       13.8478693769      -40.1711370234  TIP3      5791            0.0000000000
     39625      5983  TIP3      H2             32.9919290409       14.1312004839      -40.9179383249  TIP3      5791            0.0000000000
     39626      5984  TIP3      OH2            34.4362271030       17.8334093616      -27.5855424742  TIP3      5792            0.0000000000
     39627      5984  TIP3      H1             33.7566050453       17.3358922423      -28.0915849344  TIP3      5792            0.0000000000
     39628      5984  TIP3      H2             34.6800526216       18.5210133206      -28.2461025946  TIP3      5792            0.0000000000
     39629      5985  TIP3      OH2            22.5319497389        5.0911231057      -28.2017767548  TIP3      5793            0.0000000000
     39630      5985  TIP3      H1             21.6203042118        5.4301504741      -28.2465496151  TIP3      5793            0.0000000000
     39631      5985  TIP3      H2             22.4158828156        4.2326795975      -27.7638366708  TIP3      5793            0.0000000000
     39632      5986  TIP3      OH2            34.7845132244       12.8987907383      -38.7916171847  TIP3      5794            0.0000000000
     39633      5986  TIP3      H1             34.5327646326       12.1394537739      -38.2182561947  TIP3      5794            0.0000000000
     39634      5986  TIP3      H2             35.7108512110       13.0312232320      -38.5239518755  TIP3      5794            0.0000000000
     39635      5987  TIP3      OH2            22.1456764642       16.8713813928      -29.7852132631  TIP3      5795            0.0000000000
     39636      5987  TIP3      H1             22.4354819371       15.9460190512      -29.7803251910  TIP3      5795            0.0000000000
     39637      5987  TIP3      H2             22.4131345497       17.1583150314      -28.9035530444  TIP3      5795            0.0000000000
     39638      5988  TIP3      OH2            26.8967382484       14.9511274576      -40.0796181996  TIP3      5796            0.0000000000
     39639      5988  TIP3      H1             27.1492457741       14.3933206845      -39.3323342448  TIP3      5796            0.0000000000
     39640      5988  TIP3      H2             26.9748776209       15.8621499143      -39.7346956958  TIP3      5796            0.0000000000
     39641      5989  TIP3      OH2            23.3810582716       12.1784358711      -39.6262274821  TIP3      5797            0.0000000000
     39642      5989  TIP3      H1             22.7251641125       12.5771169904      -39.0162273716  TIP3      5797            0.0000000000
     39643      5989  TIP3      H2             23.9527891915       12.9369788252      -39.8391849950  TIP3      5797            0.0000000000
     39644      5990  TIP3      OH2            31.2327810719        4.8561497364      -29.2500755311  TIP3      5798            0.0000000000
     39645      5990  TIP3      H1             31.9798566265        4.9082915351      -28.6405167383  TIP3      5798            0.0000000000
     39646      5990  TIP3      H2             30.8540273882        3.9787063610      -29.0543250741  TIP3      5798            0.0000000000
     39647      5991  TIP3      OH2            32.0588449817        4.4174246328      -38.1575516581  TIP3      5799            0.0000000000
     39648      5991  TIP3      H1             32.2567393173        4.9070784351      -38.9827704427  TIP3      5799            0.0000000000
     39649      5991  TIP3      H2             32.6156036208        4.8778408754      -37.5209831080  TIP3      5799            0.0000000000
     39650      5992  TIP3      OH2            29.6936137288       16.6016299863      -39.3386838369  TIP3      5800            0.0000000000
     39651      5992  TIP3      H1             28.8742359731       17.1205586967      -39.2841925309  TIP3      5800            0.0000000000
     39652      5992  TIP3      H2             30.2351913002       17.0976057477      -39.9765631824  TIP3      5800            0.0000000000
     39653      5993  TIP3      OH2            29.2301589884        6.1763065565      -37.3561966410  TIP3      5801            0.0000000000
     39654      5993  TIP3      H1             30.0167365833        6.7542792637      -37.3267799561  TIP3      5801            0.0000000000
     39655      5993  TIP3      H2             28.9705010807        6.0597457969      -36.4255144194  TIP3      5801            0.0000000000
     39656      5994  TIP3      OH2            29.8046551801        7.2033282961      -28.1709646806  TIP3      5802            0.0000000000
     39657      5994  TIP3      H1             29.8986838556        7.7756086531      -27.3823551853  TIP3      5802            0.0000000000
     39658      5994  TIP3      H2             30.4625316901        6.5002687033      -28.0810403645  TIP3      5802            0.0000000000
     39659      5995  TIP3      OH2            30.0568894625        3.2419513741      -36.4797994738  TIP3      5803            0.0000000000
     39660      5995  TIP3      H1             29.7716938906        3.8860942903      -35.8115674989  TIP3      5803            0.0000000000
     39661      5995  TIP3      H2             30.7682748883        3.7761527645      -36.9151649877  TIP3      5803            0.0000000000
     39662      5996  TIP3      OH2            27.0614608748       17.6373138923      -39.3234248600  TIP3      5804            0.0000000000
     39663      5996  TIP3      H1             27.2357395835       18.4585477728      -39.8287735342  TIP3      5804            0.0000000000
     39664      5996  TIP3      H2             26.8205045699       17.9795052723      -38.4329451539  TIP3      5804            0.0000000000
     39665      5997  TIP3      OH2            25.7527398485        4.3218290844      -39.7152158905  TIP3      5805            0.0000000000
     39666      5997  TIP3      H1             25.6866948032        5.2413832451      -39.3807998367  TIP3      5805            0.0000000000
     39667      5997  TIP3      H2             26.6662981967        4.1043782442      -39.4580394832  TIP3      5805            0.0000000000
     39668      5998  TIP3      OH2            35.8400576523        4.8042199711      -27.4918900841  TIP3      5806            0.0000000000
     39669      5998  TIP3      H1             35.0284910272        5.3742715190      -27.4688599484  TIP3      5806            0.0000000000
     39670      5998  TIP3      H2             36.2663204732        5.1192085938      -28.2958808768  TIP3      5806            0.0000000000
     39671      5999  TIP3      OH2            34.5781394492        8.8595863602      -33.2603060475  TIP3      5807            0.0000000000
     39672      5999  TIP3      H1             33.7607695389        8.4220888892      -33.5708425873  TIP3      5807            0.0000000000
     39673      5999  TIP3      H2             35.0087201474        8.1485024083      -32.7751386311  TIP3      5807            0.0000000000
     39674      6000  TIP3      OH2            23.9895622526       14.7884362734      -40.7057156859  TIP3      5808            0.0000000000
     39675      6000  TIP3      H1             24.6455837458       15.4189346285      -40.3919970503  TIP3      5808            0.0000000000
     39676      6000  TIP3      H2             24.5058721272       14.3181370061      -41.3899980684  TIP3      5808            0.0000000000
     39677      6001  TIP3      OH2            22.3699028399        7.4590849246      -41.5149943618  TIP3      5809            0.0000000000
     39678      6001  TIP3      H1             22.3420804940        8.4242283710      -41.3967827867  TIP3      5809            0.0000000000
     39679      6001  TIP3      H2             21.4937755502        7.2634109444      -41.8676310639  TIP3      5809            0.0000000000
     39680      6002  TIP3      OH2            35.7013734536       18.1275985572      -31.6433535313  TIP3      5810            0.0000000000
     39681      6002  TIP3      H1             35.5450607296       18.8060196038      -32.3204896474  TIP3      5810            0.0000000000
     39682      6002  TIP3      H2             36.6412827415       18.2137583619      -31.4553995094  TIP3      5810            0.0000000000
     39683      6003  TIP3      OH2            23.1410951162        2.2403287293      -32.8320853094  TIP3      5811            0.0000000000
     39684      6003  TIP3      H1             22.9409867475        2.2617535968      -33.7948132511  TIP3      5811            0.0000000000
     39685      6003  TIP3      H2             22.7201977318        1.3928203195      -32.5763064114  TIP3      5811            0.0000000000
     39686      6004  TIP3      OH2            22.0961666837       16.1597935312      -36.6895134600  TIP3      5812            0.0000000000
     39687      6004  TIP3      H1             21.2417563484       16.6126892046      -36.7218616834  TIP3      5812            0.0000000000
     39688      6004  TIP3      H2             22.5746715689       16.6341484950      -37.3826538499  TIP3      5812            0.0000000000
     39689      6005  TIP3      OH2            21.3630996085       18.8025666942      -25.4179678211  TIP3      5813            0.0000000000
     39690      6005  TIP3      H1             21.8606809222       18.5883325036      -24.6299391097  TIP3      5813            0.0000000000
     39691      6005  TIP3      H2             20.8759408292       17.9803899085      -25.6058580473  TIP3      5813            0.0000000000
     39692      6006  TIP3      OH2            30.4687298840       17.3002784447      -41.8215592312  TIP3      5814            0.0000000000
     39693      6006  TIP3      H1             29.6315846341       16.8092575480      -41.9138877982  TIP3      5814            0.0000000000
     39694      6006  TIP3      H2             30.9624816632       16.8345316689      -42.4994510527  TIP3      5814            0.0000000000
     39695      6007  TIP3      OH2            32.5130910637       16.1394171796      -25.0056959479  TIP3      5815            0.0000000000
     39696      6007  TIP3      H1             32.1636782767       15.2362974236      -24.8112813386  TIP3      5815            0.0000000000
     39697      6007  TIP3      H2             33.3436882984       16.1300804646      -24.5320081658  TIP3      5815            0.0000000000
     39698      6008  TIP3      OH2            34.6578150183       16.9975190016      -42.1959192943  TIP3      5816            0.0000000000
     39699      6008  TIP3      H1             34.9458212652       16.2043544855      -41.7183490072  TIP3      5816            0.0000000000
     39700      6008  TIP3      H2             35.4386202054       17.2455175695      -42.7032189269  TIP3      5816            0.0000000000
     39701      6009  TIP3      OH2            21.2617136374       12.5441590053      -24.4422252789  TIP3      5817            0.0000000000
     39702      6009  TIP3      H1             21.3707377926       11.6517494380      -24.7816178902  TIP3      5817            0.0000000000
     39703      6009  TIP3      H2             20.4653491971       12.8637309540      -24.9010990107  TIP3      5817            0.0000000000
     39704      6010  TIP3      OH2            25.6522184427       13.0039742412      -42.2468771440  TIP3      5818            0.0000000000
     39705      6010  TIP3      H1             25.6993996146       12.1661428946      -41.7772878169  TIP3      5818            0.0000000000
     39706      6010  TIP3      H2             26.2117143905       12.7790186419      -43.0164303195  TIP3      5818            0.0000000000
     39707      6011  TIP3      OH2            27.9536083721       12.5693848202      -25.0138805600  TIP3      5819            0.0000000000
     39708      6011  TIP3      H1             27.5894035722       12.8830907634      -25.8640549311  TIP3      5819            0.0000000000
     39709      6011  TIP3      H2             27.9930765536       11.5886148632      -25.1212780679  TIP3      5819            0.0000000000
     39710      6012  TIP3      OH2            33.6050035591       12.4054924689      -27.6087982883  TIP3      5820            0.0000000000
     39711      6012  TIP3      H1             34.3899071042       13.0049016484      -27.6957884930  TIP3      5820            0.0000000000
     39712      6012  TIP3      H2             32.9196447061       13.0841786327      -27.5884036428  TIP3      5820            0.0000000000
     39713      6013  TIP3      OH2            22.1518732930        9.8128519584      -25.0090507707  TIP3      5821            0.0000000000
     39714      6013  TIP3      H1             22.5288577769        8.9382230652      -25.1448483938  TIP3      5821            0.0000000000
     39715      6013  TIP3      H2             21.8402529538        9.8080560945      -24.1091459137  TIP3      5821            0.0000000000
     39716      6014  TIP3      OH2            26.7808258683       10.9658668969      -39.9638829740  TIP3      5822            0.0000000000
     39717      6014  TIP3      H1             26.2731903589       10.4335050655      -39.3294499292  TIP3      5822            0.0000000000
     39718      6014  TIP3      H2             27.0758014488       10.2718579390      -40.6005929731  TIP3      5822            0.0000000000
     39719      6015  TIP3      OH2            26.0291905992        8.7617054250      -27.6627270751  TIP3      5823            0.0000000000
     39720      6015  TIP3      H1             25.4361647649        9.4860792165      -27.3975972913  TIP3      5823            0.0000000000
     39721      6015  TIP3      H2             26.4209959313        9.1243276129      -28.4759722379  TIP3      5823            0.0000000000
     39722      6016  TIP3      OH2            27.8453931398        9.1850982295      -41.7582656227  TIP3      5824            0.0000000000
     39723      6016  TIP3      H1             27.7290931954        8.9883800588      -42.6978201232  TIP3      5824            0.0000000000
     39724      6016  TIP3      H2             28.8237717821        9.2569854040      -41.6578772746  TIP3      5824            0.0000000000
     39725      6017  TIP3      OH2            31.1028151138       11.3257587630      -24.2938226486  TIP3      5825            0.0000000000
     39726      6017  TIP3      H1             32.0611753118       11.2973794984      -24.3964657785  TIP3      5825            0.0000000000
     39727      6017  TIP3      H2             30.9509058572       10.5576841624      -23.7188501077  TIP3      5825            0.0000000000
     39728      6018  TIP3      OH2            26.4330607306        6.1434560955      -26.5765542142  TIP3      5826            0.0000000000
     39729      6018  TIP3      H1             26.5392013649        5.4291699369      -27.2313701677  TIP3      5826            0.0000000000
     39730      6018  TIP3      H2             26.3900514891        6.9432810049      -27.1421631471  TIP3      5826            0.0000000000
     39731      6019  TIP3      OH2            26.8358081034        4.5156852264      -29.0565428285  TIP3      5827            0.0000000000
     39732      6019  TIP3      H1             27.3474839129        4.9806780200      -29.7607496774  TIP3      5827            0.0000000000
     39733      6019  TIP3      H2             25.9444914603        4.4344739968      -29.4669466345  TIP3      5827            0.0000000000
     39734      6020  TIP3      OH2            28.3756244610        9.9961174979      -28.8162736590  TIP3      5828            0.0000000000
     39735      6020  TIP3      H1             29.1329620490        9.8360295432      -29.3889185260  TIP3      5828            0.0000000000
     39736      6020  TIP3      H2             28.0177359117       10.8365174200      -29.1448892536  TIP3      5828            0.0000000000
     39737      6021  TIP3      OH2            32.8270656189        7.7856450385      -23.8245043685  TIP3      5829            0.0000000000
     39738      6021  TIP3      H1             33.0480888337        6.8571351111      -23.8749251100  TIP3      5829            0.0000000000
     39739      6021  TIP3      H2             33.6933417767        8.2138399979      -23.8731185938  TIP3      5829            0.0000000000
     39740      6022  TIP3      OH2            34.1346188570       10.5852578940      -25.6887805791  TIP3      5830            0.0000000000
     39741      6022  TIP3      H1             33.8397091744       11.2773391316      -26.3226508396  TIP3      5830            0.0000000000
     39742      6022  TIP3      H2             35.0662862731       10.4811546705      -25.8876633453  TIP3      5830            0.0000000000
     39743      6023  TIP3      OH2            24.8752440031        7.3660748810      -24.6682427979  TIP3      5831            0.0000000000
     39744      6023  TIP3      H1             24.1247929148        6.7864248055      -24.8933781435  TIP3      5831            0.0000000000
     39745      6023  TIP3      H2             25.5433740653        7.0293663854      -25.2999908142  TIP3      5831            0.0000000000
     39746      6024  TIP3      OH2            27.6225877530        1.9569783028      -28.6472375731  TIP3      5832            0.0000000000
     39747      6024  TIP3      H1             27.4486230429        2.9204474396      -28.7682653914  TIP3      5832            0.0000000000
     39748      6024  TIP3      H2             26.8775748146        1.5874892532      -29.1556125309  TIP3      5832            0.0000000000
     39749      6025  TIP3      OH2            28.9103769672        6.2675226603      -25.0697793710  TIP3      5833            0.0000000000
     39750      6025  TIP3      H1             28.5793072946        6.0842136559      -24.1691581723  TIP3      5833            0.0000000000
     39751      6025  TIP3      H2             28.0925809274        6.0806193649      -25.5714405368  TIP3      5833            0.0000000000
     39752      6026  TIP3      OH2            31.5953206741        5.3996130098      -25.9716354227  TIP3      5834            0.0000000000
     39753      6026  TIP3      H1             30.6288770496        5.4713841424      -25.8387935083  TIP3      5834            0.0000000000
     39754      6026  TIP3      H2             31.8463259344        4.7652120062      -25.2968200276  TIP3      5834            0.0000000000
     39755      6027  TIP3      OH2            23.0121404882        5.3411101236      -24.9172905551  TIP3      5835            0.0000000000
     39756      6027  TIP3      H1             23.2330008298        4.6158396323      -25.5360062906  TIP3      5835            0.0000000000
     39757      6027  TIP3      H2             22.9065422817        4.8314285833      -24.0833719652  TIP3      5835            0.0000000000
     39758      6028  TIP3      OH2            27.7851952960        1.2720686600      -25.9764379988  TIP3      5836            0.0000000000
     39759      6028  TIP3      H1             28.5363200960        0.6462528428      -26.0100782305  TIP3      5836            0.0000000000
     39760      6028  TIP3      H2             27.7151793586        1.5043560333      -26.9231241805  TIP3      5836            0.0000000000
     39761      6029  TIP3      OH2            28.2307487108        2.9889198912      -23.9509483069  TIP3      5837            0.0000000000
     39762      6029  TIP3      H1             28.0294419438        2.4545019436      -24.7382666871  TIP3      5837            0.0000000000
     39763      6029  TIP3      H2             27.5887726302        3.7200510229      -23.9502095258  TIP3      5837            0.0000000000
     39764      6030  TIP3      OH2            27.6754935250       19.8614247121      -40.7433540310  TIP3      5838            0.0000000000
     39765      6030  TIP3      H1             28.6464525253       19.9681260059      -40.6084792689  TIP3      5838            0.0000000000
     39766      6030  TIP3      H2             27.4988471904       20.5373687229      -41.3951500277  TIP3      5838            0.0000000000
     39767      6031  TIP3      OH2            21.2505041763       14.4572192396      -41.2116361441  TIP3      5839            0.0000000000
     39768      6031  TIP3      H1             22.2098749909       14.5511447153      -40.9977920428  TIP3      5839            0.0000000000
     39769      6031  TIP3      H2             21.2823068102       13.8607400032      -41.9641125225  TIP3      5839            0.0000000000
     39770      6032  TIP3      OH2            19.9989154850       19.8379862310      -36.2345513985  TIP3      5840            0.0000000000
     39771      6032  TIP3      H1             19.2876310435       19.3510397334      -36.7058537829  TIP3      5840            0.0000000000
     39772      6032  TIP3      H2             20.2870693733       19.1776692609      -35.5789410869  TIP3      5840            0.0000000000
     39773      6033  TIP3      OH2            20.8293599397       17.9656831325      -34.3683708777  TIP3      5841            0.0000000000
     39774      6033  TIP3      H1             20.4765424662       17.0862932429      -34.1691539258  TIP3      5841            0.0000000000
     39775      6033  TIP3      H2             21.0648859346       18.2925915636      -33.4836554318  TIP3      5841            0.0000000000
     39776      6034  TIP3      OH2            36.2999404273       16.0165811467      -29.1982768017  TIP3      5842            0.0000000000
     39777      6034  TIP3      H1             35.6421078059       16.4428169408      -28.6311974836  TIP3      5842            0.0000000000
     39778      6034  TIP3      H2             35.7715760689       15.6493712624      -29.9347102328  TIP3      5842            0.0000000000
     39779      6035  TIP3      OH2            35.3892744778        9.0302870133      -35.8469211382  TIP3      5843            0.0000000000
     39780      6035  TIP3      H1             35.6441200758        8.1009334432      -35.8231644748  TIP3      5843            0.0000000000
     39781      6035  TIP3      H2             35.4983002896        9.2691440128      -34.9036509381  TIP3      5843            0.0000000000
     39782      6036  TIP3      OH2            20.8809493680       11.0359094851      -31.8807140581  TIP3      5844            0.0000000000
     39783      6036  TIP3      H1             21.0686188331       10.9612579895      -32.8403876596  TIP3      5844            0.0000000000
     39784      6036  TIP3      H2             21.7746369502       10.8712437857      -31.5191685821  TIP3      5844            0.0000000000
     39785      6037  TIP3      OH2            35.7626492967        5.0316137642      -42.3188505620  TIP3      5845            0.0000000000
     39786      6037  TIP3      H1             36.4851324085        4.5612861059      -41.8671716152  TIP3      5845            0.0000000000
     39787      6037  TIP3      H2             35.0009493445        4.4591015313      -42.2111947537  TIP3      5845            0.0000000000
     39788      6038  TIP3      OH2            35.5249951847        6.4921522786      -37.6023621789  TIP3      5846            0.0000000000
     39789      6038  TIP3      H1             35.8151697382        5.6349226819      -37.2409122936  TIP3      5846            0.0000000000
     39790      6038  TIP3      H2             36.3482128431        6.8421219196      -37.9593039861  TIP3      5846            0.0000000000
     39791      6039  TIP3      OH2           -37.0431221839        6.2594991263      -32.0494878156  TIP3      5847            0.0000000000
     39792      6039  TIP3      H1            -36.1589098645        6.6252945258      -32.1683274438  TIP3      5847            0.0000000000
     39793      6039  TIP3      H2            -37.2489390757        6.9009194976      -31.3469434061  TIP3      5847            0.0000000000
     39794      6040  TIP3      OH2            36.2605094991        7.8591506902      -29.0143181318  TIP3      5848            0.0000000000
     39795      6040  TIP3      H1             35.3272883650        8.1269186245      -28.8971619686  TIP3      5848            0.0000000000
     39796      6040  TIP3      H2             36.6212637485        8.5762092256      -29.5687743307  TIP3      5848            0.0000000000
     39797      6041  TIP3      OH2            20.5175793663        6.3370552317      -25.7234735652  TIP3      5849            0.0000000000
     39798      6041  TIP3      H1             21.4500578020        6.1094974224      -25.5396216181  TIP3      5849            0.0000000000
     39799      6041  TIP3      H2             20.0453185413        5.5278636283      -25.4104959084  TIP3      5849            0.0000000000
     39800      6042  TIP3      OH2            35.3151996024        3.5097521802      -36.7762674393  TIP3      5850            0.0000000000
     39801      6042  TIP3      H1             36.2528607235        3.3488687408      -36.5567946787  TIP3      5850            0.0000000000
     39802      6042  TIP3      H2             35.3624546618        3.1130896626      -37.6708451862  TIP3      5850            0.0000000000
     39803      6043  TIP3      OH2            21.7028354374        4.6314943944      -32.8726589755  TIP3      5851            0.0000000000
     39804      6043  TIP3      H1             22.1647739762        3.8082536938      -32.6099749436  TIP3      5851            0.0000000000
     39805      6043  TIP3      H2             22.2455013904        5.3258831972      -32.4766536115  TIP3      5851            0.0000000000
     39806      6044  TIP3      OH2            19.9867950173        7.6284055196      -31.8326318590  TIP3      5852            0.0000000000
     39807      6044  TIP3      H1             20.5490016556        7.3867800694      -32.5967172838  TIP3      5852            0.0000000000
     39808      6044  TIP3      H2             20.4442075201        8.4380514368      -31.5623046627  TIP3      5852            0.0000000000
     39809      6045  TIP3      OH2            20.3463773175        3.9075586765      -37.7456756840  TIP3      5853            0.0000000000
     39810      6045  TIP3      H1             19.4032065429        4.0813103156      -37.8836800906  TIP3      5853            0.0000000000
     39811      6045  TIP3      H2             20.7651161180        4.3831233976      -38.4833131956  TIP3      5853            0.0000000000
     39812      6046  TIP3      OH2            34.8713375701       18.7558722168      -35.6748293852  TIP3      5854            0.0000000000
     39813      6046  TIP3      H1             35.5006605538       18.3231496700      -36.2834823164  TIP3      5854            0.0000000000
     39814      6046  TIP3      H2             35.4653867834       19.1409865955      -35.0234386251  TIP3      5854            0.0000000000
     39815      6047  TIP3      OH2            20.3191167191        2.5698095481      -29.4658530556  TIP3      5855            0.0000000000
     39816      6047  TIP3      H1             19.6457316825        2.3642124565      -28.7892112565  TIP3      5855            0.0000000000
     39817      6047  TIP3      H2             19.8389248250        3.2248414275      -30.0093073178  TIP3      5855            0.0000000000
     39818      6048  TIP3      OH2            22.5342915485       15.8545572508      -25.2498579144  TIP3      5856            0.0000000000
     39819      6048  TIP3      H1             21.6959477921       15.9341983365      -25.7441710856  TIP3      5856            0.0000000000
     39820      6048  TIP3      H2             22.1971084242       15.6298575893      -24.3855820619  TIP3      5856            0.0000000000
     39821      6049  TIP3      OH2            25.4382895649       16.7536969927      -29.0118313542  TIP3      5857            0.0000000000
     39822      6049  TIP3      H1             25.0954489992       17.6095212238      -29.3066863627  TIP3      5857            0.0000000000
     39823      6049  TIP3      H2             26.3614009543       16.8406942272      -29.3249140481  TIP3      5857            0.0000000000
     39824      6050  TIP3      OH2            29.7757165218       18.1733206414      -26.1088276914  TIP3      5858            0.0000000000
     39825      6050  TIP3      H1             29.9076814923       17.8293906918      -25.2000771368  TIP3      5858            0.0000000000
     39826      6050  TIP3      H2             30.6620333657       18.4892250888      -26.3811328831  TIP3      5858            0.0000000000
     39827      6051  TIP3      OH2            32.0592940498       19.4126664915      -26.7743215496  TIP3      5859            0.0000000000
     39828      6051  TIP3      H1             32.8084983035       18.8706626806      -27.0703564185  TIP3      5859            0.0000000000
     39829      6051  TIP3      H2             32.4577941569       19.9035371452      -26.0305289314  TIP3      5859            0.0000000000
     39830      6052  TIP3      OH2            22.8549756340       19.9968110560      -29.0319645351  TIP3      5860            0.0000000000
     39831      6052  TIP3      H1             22.1224979040       20.4882234825      -29.4312284834  TIP3      5860            0.0000000000
     39832      6052  TIP3      H2             22.5251360237       19.8133202280      -28.1419784516  TIP3      5860            0.0000000000
     39833      6053  TIP3      OH2            25.3313054013       19.5697436856      -29.9610175434  TIP3      5861            0.0000000000
     39834      6053  TIP3      H1             24.4441761630       19.7094231895      -29.5527529362  TIP3      5861            0.0000000000
     39835      6053  TIP3      H2             25.2683655094       20.1630564338      -30.7317819506  TIP3      5861            0.0000000000
     39836      6054  TIP3      OH2            30.0057155852       19.4672512705      -30.7736838570  TIP3      5862            0.0000000000
     39837      6054  TIP3      H1             29.5711925363       20.0347413134      -31.4322773738  TIP3      5862            0.0000000000
     39838      6054  TIP3      H2             30.1721491968       20.1107897487      -30.0487061380  TIP3      5862            0.0000000000
     39839      6055  TIP3      OH2            32.3315372491       18.2974862575      -29.7612590586  TIP3      5863            0.0000000000
     39840      6055  TIP3      H1             31.4676849288       18.5580927467      -30.1198018216  TIP3      5863            0.0000000000
     39841      6055  TIP3      H2             32.7823364936       19.1565915363      -29.8393273272  TIP3      5863            0.0000000000
     39842      6056  TIP3      OH2            34.7829197087       19.8610640016      -29.5210037387  TIP3      5864            0.0000000000
     39843      6056  TIP3      H1             34.7687761590       20.8082331431      -29.7496698647  TIP3      5864            0.0000000000
     39844      6056  TIP3      H2             35.1134652751       19.4867080033      -30.3584810370  TIP3      5864            0.0000000000
     39845      6057  TIP3      OH2            22.3144360342       18.6399185142      -32.0841291444  TIP3      5865            0.0000000000
     39846      6057  TIP3      H1             22.2375991113       18.1810227973      -31.2194722825  TIP3      5865            0.0000000000
     39847      6057  TIP3      H2             23.1305636979       18.2669959826      -32.4746530750  TIP3      5865            0.0000000000
     39848      6058  TIP3      OH2            24.3948843746       17.3516553279      -33.4315099626  TIP3      5866            0.0000000000
     39849      6058  TIP3      H1             24.2289550211       16.4173844585      -33.2044667936  TIP3      5866            0.0000000000
     39850      6058  TIP3      H2             25.2510015775       17.5023254628      -32.9744918987  TIP3      5866            0.0000000000
     39851      6059  TIP3      OH2            26.9678896246       17.8383541249      -32.5583293744  TIP3      5867            0.0000000000
     39852      6059  TIP3      H1             27.1551901982       16.9190189844      -32.8222147978  TIP3      5867            0.0000000000
     39853      6059  TIP3      H2             27.0408533887       17.7806388859      -31.5941141357  TIP3      5867            0.0000000000
     39854      6060  TIP3      OH2            30.4652213513        3.4728876286      -33.3924005140  TIP3      5868            0.0000000000
     39855      6060  TIP3      H1             29.7603488794        2.8508957095      -33.1479396320  TIP3      5868            0.0000000000
     39856      6060  TIP3      H2             30.9950767977        2.9679677432      -34.0162254294  TIP3      5868            0.0000000000
     39857      6061  TIP3      OH2            35.5517392056        1.5205602244      -33.3018857604  TIP3      5869            0.0000000000
     39858      6061  TIP3      H1             36.1844776136        2.1049836928      -33.7590623457  TIP3      5869            0.0000000000
     39859      6061  TIP3      H2             34.7164441292        1.9451943748      -33.6110742684  TIP3      5869            0.0000000000
     39860      6062  TIP3      OH2            22.8222636406        2.1148403151      -35.5713808331  TIP3      5870            0.0000000000
     39861      6062  TIP3      H1             22.0221837926        1.9132809005      -36.0942101298  TIP3      5870            0.0000000000
     39862      6062  TIP3      H2             23.2845901072        1.2570181539      -35.6206200035  TIP3      5870            0.0000000000
     39863      6063  TIP3      OH2            21.5507521551        1.8723200885      -39.8654606548  TIP3      5871            0.0000000000
     39864      6063  TIP3      H1             22.0778858128        2.5201723326      -40.3686932501  TIP3      5871            0.0000000000
     39865      6063  TIP3      H2             21.0233561642        2.4416391573      -39.2776233312  TIP3      5871            0.0000000000
     39866      6064  TIP3      OH2            27.3025353424        2.0337144513      -35.7828596680  TIP3      5872            0.0000000000
     39867      6064  TIP3      H1             28.2033843388        2.3921043330      -35.8533222173  TIP3      5872            0.0000000000
     39868      6064  TIP3      H2             27.2559452745        1.8205954782      -34.8511674215  TIP3      5872            0.0000000000
     39869      6065  TIP3      OH2            33.0679536149        1.9673747041      -34.1348867520  TIP3      5873            0.0000000000
     39870      6065  TIP3      H1             32.9783459282        2.2173436249      -35.0695456794  TIP3      5873            0.0000000000
     39871      6065  TIP3      H2             32.5340795381        1.1430465807      -34.0875930369  TIP3      5873            0.0000000000
     39872      6066  TIP3      OH2            34.2477304348        2.0008848878      -38.6220880326  TIP3      5874            0.0000000000
     39873      6066  TIP3      H1             33.5500985623        2.6738993299      -38.6395386390  TIP3      5874            0.0000000000
     39874      6066  TIP3      H2             33.7810531038        1.2093783425      -38.2936006011  TIP3      5874            0.0000000000
     39875      6067  TIP3      OH2            21.5174873820       17.8270068946      -38.8388368523  TIP3      5875            0.0000000000
     39876      6067  TIP3      H1             20.8376057865       17.8234499050      -39.5397723683  TIP3      5875            0.0000000000
     39877      6067  TIP3      H2             21.5365646894       18.7774843024      -38.6709925684  TIP3      5875            0.0000000000
     39878      6068  TIP3      OH2            23.4180227083        3.7338825200      -41.3304878003  TIP3      5876            0.0000000000
     39879      6068  TIP3      H1             24.0045139057        3.1817716277      -41.8383036670  TIP3      5876            0.0000000000
     39880      6068  TIP3      H2             24.0507548796        4.1588774688      -40.7156584319  TIP3      5876            0.0000000000
     39881      6069  TIP3      OH2            28.4577617300        4.0579603435      -38.9286573714  TIP3      5877            0.0000000000
     39882      6069  TIP3      H1             28.7144506494        3.4806057146      -38.1907490799  TIP3      5877            0.0000000000
     39883      6069  TIP3      H2             28.5126715665        4.9216836806      -38.4576908344  TIP3      5877            0.0000000000
     39884      6070  TIP3      OH2            30.3354534549       19.3834752404      -40.4593240588  TIP3      5878            0.0000000000
     39885      6070  TIP3      H1             31.2966841302       19.4042145838      -40.6318778207  TIP3      5878            0.0000000000
     39886      6070  TIP3      H2             30.1691977207       18.6757612869      -41.1293730389  TIP3      5878            0.0000000000
     39887      6071  TIP3      OH2            22.7222311847        2.6537674183      -26.1444100583  TIP3      5879            0.0000000000
     39888      6071  TIP3      H1             22.3110789400        1.8842318333      -25.7102110190  TIP3      5879            0.0000000000
     39889      6071  TIP3      H2             23.6119645905        2.6081742206      -25.7396764274  TIP3      5879            0.0000000000
     39890      6072  TIP3      OH2            24.7138961889        2.0385301061      -24.4655839773  TIP3      5880            0.0000000000
     39891      6072  TIP3      H1             25.6069584547        1.7439388577      -24.7264649961  TIP3      5880            0.0000000000
     39892      6072  TIP3      H2             24.3116099254        1.2361616818      -24.0799757864  TIP3      5880            0.0000000000
     39893      6073  TIP3      OH2            23.3409236567       18.7985263837      -41.8742933371  TIP3      5881            0.0000000000
     39894      6073  TIP3      H1             23.0415420095       19.0664114477      -40.9967515088  TIP3      5881            0.0000000000
     39895      6073  TIP3      H2             24.0989332127       18.2400488404      -41.7069290844  TIP3      5881            0.0000000000
     39896      6074  TIP3      OH2            33.1970266457        1.3819053000      -24.3532714835  TIP3      5882            0.0000000000
     39897      6074  TIP3      H1             33.2205595371        0.8537341014      -23.5351961483  TIP3      5882            0.0000000000
     39898      6074  TIP3      H2             34.0839234098        1.2805463963      -24.7281858929  TIP3      5882            0.0000000000
     39899      6075  TIP3      OH2            36.0833330460       17.2643027624      -25.5454993437  TIP3      5883            0.0000000000
     39900      6075  TIP3      H1             35.4698724709       17.1948402594      -26.3075974617  TIP3      5883            0.0000000000
     39901      6075  TIP3      H2             36.1369729051       18.2412326208      -25.4939588955  TIP3      5883            0.0000000000
     39902      6076  TIP3      OH2           -24.6657543975       30.0872289024      -35.7053858138  TIP3      5884            0.0000000000
     39903      6076  TIP3      H1            -24.6636088901       31.0715855372      -35.7476302522  TIP3      5884            0.0000000000
     39904      6076  TIP3      H2            -25.3863820510       29.8641177028      -36.3163747561  TIP3      5884            0.0000000000
     39905      6077  TIP3      OH2           -25.8026100227       29.3645788221      -32.2076303811  TIP3      5885            0.0000000000
     39906      6077  TIP3      H1            -25.8136833154       28.7114531755      -31.4953321526  TIP3      5885            0.0000000000
     39907      6077  TIP3      H2            -26.1375080100       28.8612435155      -32.9664808433  TIP3      5885            0.0000000000
     39908      6078  TIP3      OH2           -33.3881358264       28.9985969932      -30.6778487687  TIP3      5886            0.0000000000
     39909      6078  TIP3      H1            -33.3331239979       28.3438730784      -29.9601882588  TIP3      5886            0.0000000000
     39910      6078  TIP3      H2            -32.6992992152       29.6304057810      -30.4338164073  TIP3      5886            0.0000000000
     39911      6079  TIP3      OH2           -22.1073654007       32.2986533858      -33.9209580602  TIP3      5887            0.0000000000
     39912      6079  TIP3      H1            -22.5328314235       31.5874882599      -33.4344316272  TIP3      5887            0.0000000000
     39913      6079  TIP3      H2            -22.0739641445       33.0195550110      -33.2680974018  TIP3      5887            0.0000000000
     39914      6080  TIP3      OH2           -32.5176246372       33.4007941258      -32.0496236302  TIP3      5888            0.0000000000
     39915      6080  TIP3      H1            -32.8471463131       32.5982584597      -32.4929403024  TIP3      5888            0.0000000000
     39916      6080  TIP3      H2            -31.5572230058       33.2863351630      -32.1210039578  TIP3      5888            0.0000000000
     39917      6081  TIP3      OH2           -35.5999207274       27.0498718691      -37.0227334434  TIP3      5889            0.0000000000
     39918      6081  TIP3      H1            -36.0784972750       27.8444405783      -36.7033774460  TIP3      5889            0.0000000000
     39919      6081  TIP3      H2            -36.3963940822       26.5321048741      -37.0931413216  TIP3      5889            0.0000000000
     39920      6082  TIP3      OH2           -34.0886159873       29.3309903867      -34.5913603785  TIP3      5890            0.0000000000
     39921      6082  TIP3      H1            -34.7916892874       28.7817532247      -34.1597707241  TIP3      5890            0.0000000000
     39922      6082  TIP3      H2            -34.4016760278       29.3145703727      -35.4916151888  TIP3      5890            0.0000000000
     39923      6083  TIP3      OH2           -27.4390101236       31.7515271351      -31.7378325496  TIP3      5891            0.0000000000
     39924      6083  TIP3      H1            -27.0865150404       31.1339800216      -32.3983431124  TIP3      5891            0.0000000000
     39925      6083  TIP3      H2            -26.6329505717       31.9340476265      -31.2234127669  TIP3      5891            0.0000000000
     39926      6084  TIP3      OH2           -18.8192432659       23.4204231501      -31.0089555055  TIP3      5892            0.0000000000
     39927      6084  TIP3      H1            -18.6504556246       24.0127402870      -30.2438582957  TIP3      5892            0.0000000000
     39928      6084  TIP3      H2            -18.2615281699       23.8469077763      -31.6750358695  TIP3      5892            0.0000000000
     39929      6085  TIP3      OH2           -24.2567184355       26.2317215178      -31.4304837642  TIP3      5893            0.0000000000
     39930      6085  TIP3      H1            -24.0921204913       25.2719354771      -31.4281944527  TIP3      5893            0.0000000000
     39931      6085  TIP3      H2            -24.3586774228       26.3743022608      -32.3914929021  TIP3      5893            0.0000000000
     39932      6086  TIP3      OH2           -31.1145404361       24.3123874774      -34.2005314386  TIP3      5894            0.0000000000
     39933      6086  TIP3      H1            -31.0277765204       25.1533163028      -34.6888433879  TIP3      5894            0.0000000000
     39934      6086  TIP3      H2            -31.5151786085       23.7519070192      -34.8943817982  TIP3      5894            0.0000000000
     39935      6087  TIP3      OH2           -23.4014470283       24.4023793218      -35.8404118790  TIP3      5895            0.0000000000
     39936      6087  TIP3      H1            -22.7466924972       24.0894502248      -35.1731329232  TIP3      5895            0.0000000000
     39937      6087  TIP3      H2            -22.8394551354       24.9704131677      -36.3925195644  TIP3      5895            0.0000000000
     39938      6088  TIP3      OH2           -34.5553358971       26.5782822662      -33.4982119569  TIP3      5896            0.0000000000
     39939      6088  TIP3      H1            -33.7880257356       26.1702827729      -33.0640072751  TIP3      5896            0.0000000000
     39940      6088  TIP3      H2            -34.3660544441       26.4319830130      -34.4279395645  TIP3      5896            0.0000000000
     39941      6089  TIP3      OH2           -29.3581318041       28.2850111955      -34.1736041002  TIP3      5897            0.0000000000
     39942      6089  TIP3      H1            -28.7007222692       27.7055430378      -33.7565237645  TIP3      5897            0.0000000000
     39943      6089  TIP3      H2            -29.8830354523       27.6253021239      -34.6633527423  TIP3      5897            0.0000000000
     39944      6090  TIP3      OH2           -18.3811533383       24.8311117807      -28.7474683819  TIP3      5898            0.0000000000
     39945      6090  TIP3      H1            -18.9988474875       25.5897009757      -28.8246808655  TIP3      5898            0.0000000000
     39946      6090  TIP3      H2            -18.3397685777       24.7190846776      -27.7821091308  TIP3      5898            0.0000000000
     39947      6091  TIP3      OH2           -32.1970086672       23.2117527897      -30.1795235159  TIP3      5899            0.0000000000
     39948      6091  TIP3      H1            -32.4999820921       23.7883767263      -30.9123465919  TIP3      5899            0.0000000000
     39949      6091  TIP3      H2            -32.8815180832       23.4447239314      -29.5024968388  TIP3      5899            0.0000000000
     39950      6092  TIP3      OH2           -24.9600547091       32.6775521798      -36.6204171399  TIP3      5900            0.0000000000
     39951      6092  TIP3      H1            -25.2038332403       32.4336035126      -37.5225163220  TIP3      5900            0.0000000000
     39952      6092  TIP3      H2            -25.2409458419       33.6144415374      -36.5727382520  TIP3      5900            0.0000000000
     39953      6093  TIP3      OH2           -29.7111331304       30.8531945407      -29.9266363143  TIP3      5901            0.0000000000
     39954      6093  TIP3      H1            -30.4255854712       31.4970696822      -29.7220845844  TIP3      5901            0.0000000000
     39955      6093  TIP3      H2            -29.0042736757       31.4483923213      -30.2129321327  TIP3      5901            0.0000000000
     39956      6094  TIP3      OH2           -21.5964181638       23.7446833521      -33.8461827823  TIP3      5902            0.0000000000
     39957      6094  TIP3      H1            -21.8144138312       22.9755554907      -33.3120551430  TIP3      5902            0.0000000000
     39958      6094  TIP3      H2            -20.9265550119       24.1834312752      -33.2947865816  TIP3      5902            0.0000000000
     39959      6095  TIP3      OH2           -32.6719570742       25.0307029374      -32.1256441773  TIP3      5903            0.0000000000
     39960      6095  TIP3      H1            -32.0746267584       25.7522779357      -31.8123586230  TIP3      5903            0.0000000000
     39961      6095  TIP3      H2            -32.1294369403       24.6655056347      -32.8700937737  TIP3      5903            0.0000000000
     39962      6096  TIP3      OH2           -31.2554488172       32.8721755641      -29.1227776795  TIP3      5904            0.0000000000
     39963      6096  TIP3      H1            -31.3369421714       33.7688727810      -29.4882721703  TIP3      5904            0.0000000000
     39964      6096  TIP3      H2            -32.1484842575       32.7697208291      -28.7056072974  TIP3      5904            0.0000000000
     39965      6097  TIP3      OH2           -35.2255783855       32.5464337935      -38.3434140506  TIP3      5905            0.0000000000
     39966      6097  TIP3      H1            -35.4219373655       32.8515837859      -39.2487201296  TIP3      5905            0.0000000000
     39967      6097  TIP3      H2            -35.1171000268       33.3801260101      -37.8343347710  TIP3      5905            0.0000000000
     39968      6098  TIP3      OH2           -21.5735253851       34.1654071046      -31.5149186577  TIP3      5906            0.0000000000
     39969      6098  TIP3      H1            -22.5529552410       34.2436608918      -31.4206588008  TIP3      5906            0.0000000000
     39970      6098  TIP3      H2            -21.2917631354       35.0622863458      -31.7704652102  TIP3      5906            0.0000000000
     39971      6099  TIP3      OH2           -21.2613043018       22.4318981659      -30.1686545898  TIP3      5907            0.0000000000
     39972      6099  TIP3      H1            -21.9866813156       23.0645737530      -30.2527245028  TIP3      5907            0.0000000000
     39973      6099  TIP3      H2            -20.5497724329       22.8529678983      -30.6930906709  TIP3      5907            0.0000000000
     39974      6100  TIP3      OH2           -28.2868564845       20.5534824119      -32.7084995968  TIP3      5908            0.0000000000
     39975      6100  TIP3      H1            -28.4148258282       19.5880877682      -32.7743842545  TIP3      5908            0.0000000000
     39976      6100  TIP3      H2            -29.1662082512       20.8563994795      -32.4001589936  TIP3      5908            0.0000000000
     39977      6101  TIP3      OH2           -23.2696668407       35.6205966963      -35.1168642637  TIP3      5909            0.0000000000
     39978      6101  TIP3      H1            -22.7121624637       35.0242906914      -35.6495758639  TIP3      5909            0.0000000000
     39979      6101  TIP3      H2            -22.9265694638       36.4714959045      -35.3902869207  TIP3      5909            0.0000000000
     39980      6102  TIP3      OH2           -22.0827727234       33.7788626628      -36.4827284308  TIP3      5910            0.0000000000
     39981      6102  TIP3      H1            -22.4239903318       33.1093600258      -37.0853943276  TIP3      5910            0.0000000000
     39982      6102  TIP3      H2            -22.0805240079       33.3294003320      -35.6127581515  TIP3      5910            0.0000000000
     39983      6103  TIP3      OH2           -20.4723286860       32.4773373147      -27.9539016986  TIP3      5911            0.0000000000
     39984      6103  TIP3      H1            -20.3566247924       31.8149548161      -28.6690718923  TIP3      5911            0.0000000000
     39985      6103  TIP3      H2            -20.2609575551       33.3095523158      -28.4052927815  TIP3      5911            0.0000000000
     39986      6104  TIP3      OH2           -26.0053579237       29.3520280646      -38.2060914168  TIP3      5912            0.0000000000
     39987      6104  TIP3      H1            -26.6964619095       29.9274803233      -38.5932501263  TIP3      5912            0.0000000000
     39988      6104  TIP3      H2            -25.2930314419       29.4355790520      -38.8670805221  TIP3      5912            0.0000000000
     39989      6105  TIP3      OH2           -25.9594011832       27.8735168056      -41.1174357032  TIP3      5913            0.0000000000
     39990      6105  TIP3      H1            -25.2219527924       27.8764374854      -40.4851288203  TIP3      5913            0.0000000000
     39991      6105  TIP3      H2            -25.6310779180       27.2372452088      -41.7586497091  TIP3      5913            0.0000000000
     39992      6106  TIP3      OH2           -18.6036433204       28.7633218070      -29.9107841884  TIP3      5914            0.0000000000
     39993      6106  TIP3      H1            -19.2698528319       29.4795488817      -29.8670043212  TIP3      5914            0.0000000000
     39994      6106  TIP3      H2            -18.1203933253       28.9943667505      -30.7243236929  TIP3      5914            0.0000000000
     39995      6107  TIP3      OH2           -22.5622002754       29.5677738065      -37.2552957774  TIP3      5915            0.0000000000
     39996      6107  TIP3      H1            -23.3074705361       29.7981774733      -36.6514037137  TIP3      5915            0.0000000000
     39997      6107  TIP3      H2            -22.0841771085       28.8846352164      -36.7544724700  TIP3      5915            0.0000000000
     39998      6108  TIP3      OH2           -22.6368284722       27.7195224757      -28.1662711100  TIP3      5916            0.0000000000
     39999      6108  TIP3      H1            -22.6210847549       28.5251382570      -27.6191188574  TIP3      5916            0.0000000000
     40000      6108  TIP3      H2            -23.2682486221       28.0194158722      -28.8505235872  TIP3      5916            0.0000000000
     40001      6109  TIP3      OH2           -30.9101753767       30.2297735526      -35.3602763414  TIP3      5917            0.0000000000
     40002      6109  TIP3      H1            -31.2834755670       29.8189768248      -36.1747285180  TIP3      5917            0.0000000000
     40003      6109  TIP3      H2            -30.3256660170       29.5189448435      -35.0160327224  TIP3      5917            0.0000000000
     40004      6110  TIP3      OH2           -29.6186280467       33.6039439302      -32.6777691369  TIP3      5918            0.0000000000
     40005      6110  TIP3      H1            -29.6322229719       33.0723491389      -33.4835263934  TIP3      5918            0.0000000000
     40006      6110  TIP3      H2            -28.8396360815       33.2499508588      -32.2148546728  TIP3      5918            0.0000000000
     40007      6111  TIP3      OH2           -30.5703465381       28.9383615983      -31.6982186784  TIP3      5919            0.0000000000
     40008      6111  TIP3      H1            -30.0492734245       29.0949664869      -32.5074512841  TIP3      5919            0.0000000000
     40009      6111  TIP3      H2            -30.2570490407       29.6418923316      -31.0898241272  TIP3      5919            0.0000000000
     40010      6112  TIP3      OH2           -24.1673879722       34.5245365656      -30.9704497001  TIP3      5920            0.0000000000
     40011      6112  TIP3      H1            -24.5261896938       35.1549118272      -30.3554802714  TIP3      5920            0.0000000000
     40012      6112  TIP3      H2            -24.4609842238       33.6657127901      -30.5737962290  TIP3      5920            0.0000000000
     40013      6113  TIP3      OH2           -29.6557695490       33.3996689468      -26.9737550671  TIP3      5921            0.0000000000
     40014      6113  TIP3      H1            -30.0939798187       34.1661618824      -26.5471044125  TIP3      5921            0.0000000000
     40015      6113  TIP3      H2            -30.3057072981       33.1632406710      -27.6900357831  TIP3      5921            0.0000000000
     40016      6114  TIP3      OH2           -23.6763774796       28.7253661932      -39.5934870671  TIP3      5922            0.0000000000
     40017      6114  TIP3      H1            -23.1297689086       28.9272263374      -38.7960070430  TIP3      5922            0.0000000000
     40018      6114  TIP3      H2            -23.2712527060       29.2676250908      -40.2986026834  TIP3      5922            0.0000000000
     40019      6115  TIP3      OH2           -32.7269405390       29.5630534209      -27.8103066176  TIP3      5923            0.0000000000
     40020      6115  TIP3      H1            -32.6768632628       30.2369134348      -27.1118986811  TIP3      5923            0.0000000000
     40021      6115  TIP3      H2            -33.6569613074       29.6731146235      -28.0724831097  TIP3      5923            0.0000000000
     40022      6116  TIP3      OH2           -25.9678205512       35.4576078961      -36.1364577712  TIP3      5924            0.0000000000
     40023      6116  TIP3      H1            -25.5289042390       35.7777565746      -35.3456825378  TIP3      5924            0.0000000000
     40024      6116  TIP3      H2            -26.5444050692       36.1949662394      -36.3873778835  TIP3      5924            0.0000000000
     40025      6117  TIP3      OH2           -31.4241444736       35.3338993291      -26.2747367081  TIP3      5925            0.0000000000
     40026      6117  TIP3      H1            -31.5084212455       35.3197279091      -27.2558290572  TIP3      5925            0.0000000000
     40027      6117  TIP3      H2            -32.3679553074       35.2931133759      -26.0082894588  TIP3      5925            0.0000000000
     40028      6118  TIP3      OH2           -19.9661865041       20.4833504496      -39.7156202766  TIP3      5926            0.0000000000
     40029      6118  TIP3      H1            -20.9136221060       20.6014369144      -39.4607092089  TIP3      5926            0.0000000000
     40030      6118  TIP3      H2            -19.7430918161       21.3379847245      -40.1210923147  TIP3      5926            0.0000000000
     40031      6119  TIP3      OH2           -31.9446688913       29.2355317594      -37.7656560222  TIP3      5927            0.0000000000
     40032      6119  TIP3      H1            -32.2394643196       30.0160743410      -38.2707754070  TIP3      5927            0.0000000000
     40033      6119  TIP3      H2            -32.6311363142       28.5855764907      -37.9381910930  TIP3      5927            0.0000000000
     40034      6120  TIP3      OH2           -18.8202937881       34.7918718622      -41.3187603421  TIP3      5928            0.0000000000
     40035      6120  TIP3      H1            -18.7618668823       35.7534686035      -41.1909597439  TIP3      5928            0.0000000000
     40036      6120  TIP3      H2            -17.8903548051       34.5401204690      -41.4142482162  TIP3      5928            0.0000000000
     40037      6121  TIP3      OH2           -35.2962885898       31.5328984047      -29.0877101758  TIP3      5929            0.0000000000
     40038      6121  TIP3      H1            -36.0535675353       31.6391246072      -29.7074840187  TIP3      5929            0.0000000000
     40039      6121  TIP3      H2            -35.6855430741       30.7414619061      -28.6534063609  TIP3      5929            0.0000000000
     40040      6122  TIP3      OH2           -35.8569740473       34.5945455146      -32.2728467580  TIP3      5930            0.0000000000
     40041      6122  TIP3      H1            -34.9862772777       34.2757393367      -32.0379010822  TIP3      5930            0.0000000000
     40042      6122  TIP3      H2            -36.0640492476       35.1857453277      -31.5403075553  TIP3      5930            0.0000000000
     40043      6123  TIP3      OH2           -17.9144596383       35.1004193525      -26.3317377796  TIP3      5931            0.0000000000
     40044      6123  TIP3      H1            -17.9962975183       34.1384572386      -26.4240567678  TIP3      5931            0.0000000000
     40045      6123  TIP3      H2            -18.7930578956       35.3509015584      -25.9735217773  TIP3      5931            0.0000000000
     40046      6124  TIP3      OH2           -26.9122536937       34.6200093337      -27.4540790976  TIP3      5932            0.0000000000
     40047      6124  TIP3      H1            -26.8470131465       35.4852059343      -27.0376277397  TIP3      5932            0.0000000000
     40048      6124  TIP3      H2            -27.8168866610       34.2897073052      -27.2818102019  TIP3      5932            0.0000000000
     40049      6125  TIP3      OH2           -20.6889981504       26.5761372755      -25.9108055552  TIP3      5933            0.0000000000
     40050      6125  TIP3      H1            -21.1706328344       27.0379638869      -26.6101724562  TIP3      5933            0.0000000000
     40051      6125  TIP3      H2            -20.7062530138       25.6558788499      -26.2097392673  TIP3      5933            0.0000000000
     40052      6126  TIP3      OH2           -33.5524399818       33.0290143049      -27.8369811511  TIP3      5934            0.0000000000
     40053      6126  TIP3      H1            -33.3965811965       32.5822371380      -26.9878452873  TIP3      5934            0.0000000000
     40054      6126  TIP3      H2            -34.3955424110       32.6180426383      -28.1379426490  TIP3      5934            0.0000000000
     40055      6127  TIP3      OH2           -30.9048551915       21.4599566975      -31.9489137297  TIP3      5935            0.0000000000
     40056      6127  TIP3      H1            -31.8066952707       21.3434105798      -32.3164391076  TIP3      5935            0.0000000000
     40057      6127  TIP3      H2            -31.0410148032       22.2925021201      -31.4701070453  TIP3      5935            0.0000000000
     40058      6128  TIP3      OH2           -26.2796714137       21.1232819306      -28.5822036153  TIP3      5936            0.0000000000
     40059      6128  TIP3      H1            -25.8894736743       20.7117350536      -27.7885605242  TIP3      5936            0.0000000000
     40060      6128  TIP3      H2            -27.2502984968       21.0009608178      -28.4327698950  TIP3      5936            0.0000000000
     40061      6129  TIP3      OH2           -22.9965529810       24.9585510059      -27.7142985523  TIP3      5937            0.0000000000
     40062      6129  TIP3      H1            -23.5389832217       24.7599605074      -26.9141762585  TIP3      5937            0.0000000000
     40063      6129  TIP3      H2            -23.1522242825       25.8965999699      -27.9054848380  TIP3      5937            0.0000000000
     40064      6130  TIP3      OH2           -22.1529385576       29.8249696407      -41.7761242045  TIP3      5938            0.0000000000
     40065      6130  TIP3      H1            -22.1484417369       29.6441793854      -42.7332718379  TIP3      5938            0.0000000000
     40066      6130  TIP3      H2            -21.2866784451       30.2529581711      -41.6672497946  TIP3      5938            0.0000000000
     40067      6131  TIP3      OH2           -26.6263263212       23.6943580673      -41.2487883301  TIP3      5939            0.0000000000
     40068      6131  TIP3      H1            -26.9422421013       23.6470397049      -40.3282302020  TIP3      5939            0.0000000000
     40069      6131  TIP3      H2            -26.9041819965       22.8162728796      -41.5376348069  TIP3      5939            0.0000000000
     40070      6132  TIP3      OH2           -30.8188482180       26.4228714956      -30.7060695688  TIP3      5940            0.0000000000
     40071      6132  TIP3      H1            -31.5535911858       26.4184214514      -30.0629959557  TIP3      5940            0.0000000000
     40072      6132  TIP3      H2            -30.8464148386       27.3375650383      -31.0724437318  TIP3      5940            0.0000000000
     40073      6133  TIP3      OH2           -30.8508711307       26.5462143240      -35.8381008750  TIP3      5941            0.0000000000
     40074      6133  TIP3      H1            -31.7884057558       26.3030258172      -35.9751923579  TIP3      5941            0.0000000000
     40075      6133  TIP3      H2            -30.4642052836       26.2527413340      -36.6861388242  TIP3      5941            0.0000000000
     40076      6134  TIP3      OH2           -25.3311939620       27.0360854271      -37.0907776398  TIP3      5942            0.0000000000
     40077      6134  TIP3      H1            -25.7387841019       27.8732685415      -37.4100426436  TIP3      5942            0.0000000000
     40078      6134  TIP3      H2            -24.6378409197       26.8885947357      -37.7611091849  TIP3      5942            0.0000000000
     40079      6135  TIP3      OH2           -26.2512575165       27.2645252509      -25.6328852629  TIP3      5943            0.0000000000
     40080      6135  TIP3      H1            -26.8149964211       26.5309532771      -25.2854788818  TIP3      5943            0.0000000000
     40081      6135  TIP3      H2            -25.4375897551       27.1272857079      -25.1162486218  TIP3      5943            0.0000000000
     40082      6136  TIP3      OH2           -24.3006934470       26.5318457988      -34.2218850726  TIP3      5944            0.0000000000
     40083      6136  TIP3      H1            -24.5755367537       27.0971218726      -34.9646389846  TIP3      5944            0.0000000000
     40084      6136  TIP3      H2            -24.1989213268       25.6841088357      -34.6949032190  TIP3      5944            0.0000000000
     40085      6137  TIP3      OH2           -33.1617081493       26.6578987885      -29.0016695631  TIP3      5945            0.0000000000
     40086      6137  TIP3      H1            -33.1577354012       27.1000138775      -28.1351681901  TIP3      5945            0.0000000000
     40087      6137  TIP3      H2            -33.6703991501       25.8574899031      -28.8195617635  TIP3      5945            0.0000000000
     40088      6138  TIP3      OH2           -29.6496390384       24.2897300531      -41.8496149781  TIP3      5946            0.0000000000
     40089      6138  TIP3      H1            -30.1886063326       23.6666343064      -41.3260337167  TIP3      5946            0.0000000000
     40090      6138  TIP3      H2            -30.2652534717       24.6550360994      -42.4879226200  TIP3      5946            0.0000000000
     40091      6139  TIP3      OH2           -36.2357285055       24.0005340805      -35.2126761317  TIP3      5947            0.0000000000
     40092      6139  TIP3      H1            -35.7899972863       23.8071553195      -34.3568424575  TIP3      5947            0.0000000000
     40093      6139  TIP3      H2            -35.8845407679       23.4078837093      -35.8493952213  TIP3      5947            0.0000000000
     40094      6140  TIP3      OH2           -35.2317949695       24.6308473935      -39.6754112883  TIP3      5948            0.0000000000
     40095      6140  TIP3      H1            -34.7153057069       25.1729130531      -40.3032418647  TIP3      5948            0.0000000000
     40096      6140  TIP3      H2            -35.9657288306       25.1985129878      -39.4548151536  TIP3      5948            0.0000000000
     40097      6141  TIP3      OH2           -25.1003573001       28.1285322108      -29.6495928242  TIP3      5949            0.0000000000
     40098      6141  TIP3      H1            -24.7289348238       27.4477411880      -30.2468340440  TIP3      5949            0.0000000000
     40099      6141  TIP3      H2            -25.5652981611       27.5927649927      -28.9829890404  TIP3      5949            0.0000000000
     40100      6142  TIP3      OH2           -28.2960912399       24.0962582876      -34.8314003876  TIP3      5950            0.0000000000
     40101      6142  TIP3      H1            -29.2297475378       24.1031223484      -34.5373626386  TIP3      5950            0.0000000000
     40102      6142  TIP3      H2            -27.8131946255       23.9385800248      -34.0075607584  TIP3      5950            0.0000000000
     40103      6143  TIP3      OH2           -33.4766207052       25.6313114739      -35.9538115208  TIP3      5951            0.0000000000
     40104      6143  TIP3      H1            -34.3408789494       25.8381179112      -36.3555066950  TIP3      5951            0.0000000000
     40105      6143  TIP3      H2            -33.2037430913       24.8133633712      -36.3989463987  TIP3      5951            0.0000000000
     40106      6144  TIP3      OH2           -29.8526171721       25.7078701845      -38.3333592866  TIP3      5952            0.0000000000
     40107      6144  TIP3      H1            -28.8940745909       25.8138129191      -38.1673582488  TIP3      5952            0.0000000000
     40108      6144  TIP3      H2            -30.0930055229       26.3658285985      -39.0091162526  TIP3      5952            0.0000000000
     40109      6145  TIP3      OH2           -23.8909727045       23.3258108074      -31.5891837781  TIP3      5953            0.0000000000
     40110      6145  TIP3      H1            -24.5763668421       23.3875025181      -30.8843246780  TIP3      5953            0.0000000000
     40111      6145  TIP3      H2            -24.4026578705       23.0856671047      -32.3745834325  TIP3      5953            0.0000000000
     40112      6146  TIP3      OH2           -31.1330365862       26.8578636018      -40.7490534897  TIP3      5954            0.0000000000
     40113      6146  TIP3      H1            -31.6918881132       26.5240012249      -41.4648816524  TIP3      5954            0.0000000000
     40114      6146  TIP3      H2            -30.3147534511       27.0855994686      -41.2098360016  TIP3      5954            0.0000000000
     40115      6147  TIP3      OH2           -33.0296956992       31.4892825748      -25.7076232628  TIP3      5955            0.0000000000
     40116      6147  TIP3      H1            -32.3162677321       31.6731350997      -25.0753988619  TIP3      5955            0.0000000000
     40117      6147  TIP3      H2            -33.8026888825       31.5954348528      -25.1261802597  TIP3      5955            0.0000000000
     40118      6148  TIP3      OH2           -27.0166765695       26.8527721817      -32.9377580906  TIP3      5956            0.0000000000
     40119      6148  TIP3      H1            -26.4172425447       26.3186304069      -33.4724871853  TIP3      5956            0.0000000000
     40120      6148  TIP3      H2            -27.1584589837       26.3061980521      -32.1534925275  TIP3      5956            0.0000000000
     40121      6149  TIP3      OH2           -32.0408183397       23.0000704177      -36.5019329111  TIP3      5957            0.0000000000
     40122      6149  TIP3      H1            -32.2940475870       22.0680858097      -36.5275427576  TIP3      5957            0.0000000000
     40123      6149  TIP3      H2            -31.2374435332       22.9620541851      -37.0426868461  TIP3      5957            0.0000000000
     40124      6150  TIP3      OH2           -28.3756835132       25.1859598662      -30.5234521084  TIP3      5958            0.0000000000
     40125      6150  TIP3      H1            -29.2026538518       25.6991246400      -30.4311582482  TIP3      5958            0.0000000000
     40126      6150  TIP3      H2            -27.8224186717       25.5317693407      -29.7959827525  TIP3      5958            0.0000000000
     40127      6151  TIP3      OH2           -27.7812429046       31.3912536838      -38.8058160072  TIP3      5959            0.0000000000
     40128      6151  TIP3      H1            -28.5826936359       30.9364991049      -39.1451175988  TIP3      5959            0.0000000000
     40129      6151  TIP3      H2            -28.0030817202       31.5042994215      -37.8629243815  TIP3      5959            0.0000000000
     40130      6152  TIP3      OH2           -20.6013463382       30.5932247095      -30.0270387210  TIP3      5960            0.0000000000
     40131      6152  TIP3      H1            -20.0362756513       31.0945279478      -30.6437843071  TIP3      5960            0.0000000000
     40132      6152  TIP3      H2            -21.4623723973       30.6581697507      -30.4906097581  TIP3      5960            0.0000000000
     40133      6153  TIP3      OH2           -23.9175092534       24.2025675394      -40.6390872444  TIP3      5961            0.0000000000
     40134      6153  TIP3      H1            -24.8640025648       24.3568639772      -40.8092260866  TIP3      5961            0.0000000000
     40135      6153  TIP3      H2            -23.6208360171       25.0765225051      -40.3277854930  TIP3      5961            0.0000000000
     40136      6154  TIP3      OH2           -26.2755924238       31.6995337367      -27.5809437658  TIP3      5962            0.0000000000
     40137      6154  TIP3      H1            -26.6723536692       31.2386638812      -26.8364531926  TIP3      5962            0.0000000000
     40138      6154  TIP3      H2            -26.5582105071       32.6143585976      -27.4948623691  TIP3      5962            0.0000000000
     40139      6155  TIP3      OH2           -23.2165364273       26.1395406488      -38.9739011176  TIP3      5963            0.0000000000
     40140      6155  TIP3      H1            -22.3179856108       26.0014589061      -38.6170810090  TIP3      5963            0.0000000000
     40141      6155  TIP3      H2            -23.1305119116       26.9465209515      -39.5044655961  TIP3      5963            0.0000000000
     40142      6156  TIP3      OH2           -32.5271748928       30.8653332470      -32.9245658403  TIP3      5964            0.0000000000
     40143      6156  TIP3      H1            -32.0285150085       30.7057923490      -33.7374040519  TIP3      5964            0.0000000000
     40144      6156  TIP3      H2            -32.6460681143       29.9568074545      -32.6052851766  TIP3      5964            0.0000000000
     40145      6157  TIP3      OH2           -25.6917251381       32.8771505347      -39.7836733574  TIP3      5965            0.0000000000
     40146      6157  TIP3      H1            -26.0395111169       33.7174379269      -39.4269311858  TIP3      5965            0.0000000000
     40147      6157  TIP3      H2            -26.4284969880       32.2631008826      -39.5883487877  TIP3      5965            0.0000000000
     40148      6158  TIP3      OH2           -35.7151237896       29.1894712282      -27.7368928184  TIP3      5966            0.0000000000
     40149      6158  TIP3      H1            -35.4581032277       28.7421652401      -26.9106905039  TIP3      5966            0.0000000000
     40150      6158  TIP3      H2            -36.2867461821       28.5528833981      -28.1917539344  TIP3      5966            0.0000000000
     40151      6159  TIP3      OH2           -28.6549544439       28.8188204292      -25.6020650064  TIP3      5967            0.0000000000
     40152      6159  TIP3      H1            -28.9944217765       28.4684720342      -26.4362437236  TIP3      5967            0.0000000000
     40153      6159  TIP3      H2            -27.7657064730       28.4302047938      -25.5764830420  TIP3      5967            0.0000000000
     40154      6160  TIP3      OH2           -24.0083869580       34.1182539678      -27.6813178606  TIP3      5968            0.0000000000
     40155      6160  TIP3      H1            -24.9391825790       34.2463019417      -27.9018745973  TIP3      5968            0.0000000000
     40156      6160  TIP3      H2            -24.0206382785       34.3671756091      -26.7294123257  TIP3      5968            0.0000000000
     40157      6161  TIP3      OH2           -18.3244929809       26.2766471493      -39.2295689278  TIP3      5969            0.0000000000
     40158      6161  TIP3      H1            -18.8854460844       25.9669468757      -39.9620413908  TIP3      5969            0.0000000000
     40159      6161  TIP3      H2            -18.2433493583       27.2143120475      -39.5113965696  TIP3      5969            0.0000000000
     40160      6162  TIP3      OH2           -18.3153266592       32.0954295405      -26.4533256403  TIP3      5970            0.0000000000
     40161      6162  TIP3      H1            -19.2065894237       32.3572575975      -26.7999885424  TIP3      5970            0.0000000000
     40162      6162  TIP3      H2            -17.7797192565       32.0831500812      -27.2681341844  TIP3      5970            0.0000000000
     40163      6163  TIP3      OH2           -19.8706167606       34.8573984228      -38.6531508308  TIP3      5971            0.0000000000
     40164      6163  TIP3      H1            -20.4660768360       34.1369050460      -38.5152362810  TIP3      5971            0.0000000000
     40165      6163  TIP3      H2            -19.7657821557       34.9207941203      -39.6225282264  TIP3      5971            0.0000000000
     40166      6164  TIP3      OH2           -22.8245008880       29.9219014484      -31.7406326274  TIP3      5972            0.0000000000
     40167      6164  TIP3      H1            -23.7654675573       29.7086433016      -31.8531336634  TIP3      5972            0.0000000000
     40168      6164  TIP3      H2            -22.3929985732       29.1605635700      -32.1703915217  TIP3      5972            0.0000000000
     40169      6165  TIP3      OH2           -30.2291079890       34.0619705389      -35.8211298873  TIP3      5973            0.0000000000
     40170      6165  TIP3      H1            -29.8373665787       34.9520382217      -35.7713583410  TIP3      5973            0.0000000000
     40171      6165  TIP3      H2            -31.1365811832       34.4224748673      -35.8914291670  TIP3      5973            0.0000000000
     40172      6166  TIP3      OH2           -34.6341092743       29.0830381392      -41.0694177872  TIP3      5974            0.0000000000
     40173      6166  TIP3      H1            -33.9548721231       29.7092879206      -40.7361481504  TIP3      5974            0.0000000000
     40174      6166  TIP3      H2            -35.4557342262       29.4491361082      -40.7441525266  TIP3      5974            0.0000000000
     40175      6167  TIP3      OH2           -28.8590606769       31.8722960833      -36.0881609066  TIP3      5975            0.0000000000
     40176      6167  TIP3      H1            -29.1808784920       32.8083589548      -36.0468278454  TIP3      5975            0.0000000000
     40177      6167  TIP3      H2            -29.6288921334       31.4219113065      -35.6801187928  TIP3      5975            0.0000000000
     40178      6168  TIP3      OH2           -28.1332843058       35.8049660815      -30.0291498980  TIP3      5976            0.0000000000
     40179      6168  TIP3      H1            -27.9975018752       36.7592512404      -30.0785947030  TIP3      5976            0.0000000000
     40180      6168  TIP3      H2            -27.8410534786       35.6549405507      -29.1240317887  TIP3      5976            0.0000000000
     40181      6169  TIP3      OH2           -24.8876791437       32.1156788796      -30.1113956390  TIP3      5977            0.0000000000
     40182      6169  TIP3      H1            -25.2523828693       31.8967487026      -29.2311561694  TIP3      5977            0.0000000000
     40183      6169  TIP3      H2            -24.2655697619       31.3906383774      -30.2611060699  TIP3      5977            0.0000000000
     40184      6170  TIP3      OH2           -22.6154924646       33.0755854244      -40.9796840866  TIP3      5978            0.0000000000
     40185      6170  TIP3      H1            -22.3083952365       32.7027941080      -40.1328738706  TIP3      5978            0.0000000000
     40186      6170  TIP3      H2            -23.5743047492       32.9936593309      -40.8977910912  TIP3      5978            0.0000000000
     40187      6171  TIP3      OH2           -34.0292274826       23.9455364748      -28.2330332511  TIP3      5979            0.0000000000
     40188      6171  TIP3      H1            -34.9241748806       24.3149837761      -28.2068352081  TIP3      5979            0.0000000000
     40189      6171  TIP3      H2            -34.1700635734       23.0940384309      -27.7945068957  TIP3      5979            0.0000000000
     40190      6172  TIP3      OH2           -21.7917557035       31.7363024983      -38.7793690720  TIP3      5980            0.0000000000
     40191      6172  TIP3      H1            -22.0345074782       30.9775205460      -38.2154939258  TIP3      5980            0.0000000000
     40192      6172  TIP3      H2            -20.8579945354       31.8763940803      -38.5484167794  TIP3      5980            0.0000000000
     40193      6173  TIP3      OH2           -34.2169020337       35.7396822857      -29.8483962974  TIP3      5981            0.0000000000
     40194      6173  TIP3      H1            -34.1436799699       34.7894364816      -29.7718747732  TIP3      5981            0.0000000000
     40195      6173  TIP3      H2            -34.2281970300       36.0331057469      -28.9276439111  TIP3      5981            0.0000000000
     40196      6174  TIP3      OH2           -29.6428640837       33.7683461709      -40.1202556432  TIP3      5982            0.0000000000
     40197      6174  TIP3      H1            -29.4370828483       33.2450051588      -39.3352250516  TIP3      5982            0.0000000000
     40198      6174  TIP3      H2            -29.5839054216       34.6741936873      -39.7600880492  TIP3      5982            0.0000000000
     40199      6175  TIP3      OH2           -33.2097681088       31.0443132413      -39.6122477382  TIP3      5983            0.0000000000
     40200      6175  TIP3      H1            -33.8788187382       31.4388725461      -39.0117917918  TIP3      5983            0.0000000000
     40201      6175  TIP3      H2            -32.6498287766       31.8096872618      -39.8327615835  TIP3      5983            0.0000000000
     40202      6176  TIP3      OH2           -25.3041489938       23.7077844104      -29.2719933023  TIP3      5984            0.0000000000
     40203      6176  TIP3      H1            -24.5982185653       23.7728420891      -28.6192203910  TIP3      5984            0.0000000000
     40204      6176  TIP3      H2            -25.6911556692       22.8347499034      -29.0640963972  TIP3      5984            0.0000000000
     40205      6177  TIP3      OH2           -24.5698700592       23.2998446733      -38.1550713408  TIP3      5985            0.0000000000
     40206      6177  TIP3      H1            -24.3180558334       23.7588228864      -38.9832953911  TIP3      5985            0.0000000000
     40207      6177  TIP3      H2            -23.9801174183       23.7268198172      -37.5237493071  TIP3      5985            0.0000000000
     40208      6178  TIP3      OH2           -26.8554174098       35.4548496161      -39.3181128084  TIP3      5986            0.0000000000
     40209      6178  TIP3      H1            -27.6932446466       35.9425862981      -39.2666125769  TIP3      5986            0.0000000000
     40210      6178  TIP3      H2            -26.3337729563       35.9463973275      -39.9893262892  TIP3      5986            0.0000000000
     40211      6179  TIP3      OH2           -27.3410231345       25.0323519669      -37.3561413108  TIP3      5987            0.0000000000
     40212      6179  TIP3      H1            -26.5507708019       25.6060680864      -37.3278345305  TIP3      5987            0.0000000000
     40213      6179  TIP3      H2            -27.5967485155       24.9153065685      -36.4246218325  TIP3      5987            0.0000000000
     40214      6180  TIP3      OH2           -26.7747871859       26.0585274739      -28.1826482800  TIP3      5988            0.0000000000
     40215      6180  TIP3      H1            -26.7055072033       26.6260352417      -27.3940782952  TIP3      5988            0.0000000000
     40216      6180  TIP3      H2            -26.1135094857       25.3685487932      -28.0542350323  TIP3      5988            0.0000000000
     40217      6181  TIP3      OH2           -26.4803474028       22.0942245094      -36.4692264668  TIP3      5989            0.0000000000
     40218      6181  TIP3      H1            -26.8025576500       22.7395120280      -35.8169198011  TIP3      5989            0.0000000000
     40219      6181  TIP3      H2            -25.7870388781       22.6421888470      -36.9152009284  TIP3      5989            0.0000000000
     40220      6182  TIP3      OH2           -29.4669558399      -36.5254921253      -39.3657604415  TIP3      5990            0.0000000000
     40221      6182  TIP3      H1            -29.3645357895      -35.6808269828      -39.8039694380  TIP3      5990            0.0000000000
     40222      6182  TIP3      H2            -29.7109181463      -36.2260976856      -38.4648166714  TIP3      5990            0.0000000000
     40223      6183  TIP3      OH2           -30.8083315287       23.1797778732      -39.7193068452  TIP3      5991            0.0000000000
     40224      6183  TIP3      H1            -30.8826359437       24.0955093313      -39.3839632578  TIP3      5991            0.0000000000
     40225      6183  TIP3      H2            -29.8941841484       22.9595441704      -39.4545382546  TIP3      5991            0.0000000000
     40226      6184  TIP3      OH2           -20.6086684426       23.9181904750      -27.3139003838  TIP3      5992            0.0000000000
     40227      6184  TIP3      H1            -21.5305716411       24.2368841042      -27.4451740360  TIP3      5992            0.0000000000
     40228      6184  TIP3      H2            -20.2917550291       23.9201004178      -28.2311976670  TIP3      5992            0.0000000000
     40229      6185  TIP3      OH2           -21.9863179870       27.7145828526      -33.3003355772  TIP3      5993            0.0000000000
     40230      6185  TIP3      H1            -22.8102413822       27.2691191931      -33.5750830119  TIP3      5993            0.0000000000
     40231      6185  TIP3      H2            -21.5099182847       27.0259119896      -32.7830008802  TIP3      5993            0.0000000000
     40232      6186  TIP3      OH2           -32.5780597764       33.6302014977      -40.6788088830  TIP3      5994            0.0000000000
     40233      6186  TIP3      H1            -31.9394387050       34.2971706698      -40.4128588418  TIP3      5994            0.0000000000
     40234      6186  TIP3      H2            -32.0716880164       33.1992807949      -41.3924982129  TIP3      5994            0.0000000000
     40235      6187  TIP3      OH2           -34.2163565402       26.3178302453      -41.4849373549  TIP3      5995            0.0000000000
     40236      6187  TIP3      H1            -34.2053566749       27.2843836313      -41.3935216566  TIP3      5995            0.0000000000
     40237      6187  TIP3      H2            -35.0584391902       26.0941211782      -41.8897749652  TIP3      5995            0.0000000000
     40238      6188  TIP3      OH2           -33.4100768339       21.0909129747      -32.8346286312  TIP3      5996            0.0000000000
     40239      6188  TIP3      H1            -33.5863439656       21.1129269876      -33.7985301691  TIP3      5996            0.0000000000
     40240      6188  TIP3      H2            -33.8239687430       20.2446218804      -32.5642676921  TIP3      5996            0.0000000000
     40241      6189  TIP3      OH2           -34.4558816870       34.9911688767      -36.7787850094  TIP3      5997            0.0000000000
     40242      6189  TIP3      H1            -35.2835357092       35.4613444389      -36.6941219799  TIP3      5997            0.0000000000
     40243      6189  TIP3      H2            -33.9278725068       35.5361048688      -37.3690168506  TIP3      5997            0.0000000000
     40244      6190  TIP3      OH2           -30.3105500815       36.2702087217      -23.5607247095  TIP3      5998            0.0000000000
     40245      6190  TIP3      H1            -29.4521390837       35.8920052423      -23.4112630956  TIP3      5998            0.0000000000
     40246      6190  TIP3      H2            -30.4137160401       36.1596439204      -24.5337022852  TIP3      5998            0.0000000000
     40247      6191  TIP3      OH2           -26.1455492917       36.2844032835      -41.7384583271  TIP3      5999            0.0000000000
     40248      6191  TIP3      H1            -26.9521747599       35.7514396840      -41.8852117638  TIP3      5999            0.0000000000
     40249      6191  TIP3      H2            -25.6347438071       35.8214274742      -42.4253008868  TIP3      5999            0.0000000000
     40250      6192  TIP3      OH2           -24.0833703954       34.6827071313      -25.1666920729  TIP3      6000            0.0000000000
     40251      6192  TIP3      H1            -24.4018479557       33.9113672385      -24.7184694650  TIP3      6000            0.0000000000
     40252      6192  TIP3      H2            -23.3795039380       35.0019836838      -24.5749477927  TIP3      6000            0.0000000000
     40253      6193  TIP3      OH2           -21.9264653297       35.8264929455      -42.1650068391  TIP3      6001            0.0000000000
     40254      6193  TIP3      H1            -21.6467029328       35.0461200461      -41.6661901515  TIP3      6001            0.0000000000
     40255      6193  TIP3      H2            -21.1220635449       35.9806602029      -42.6940932814  TIP3      6001            0.0000000000
     40256      6194  TIP3      OH2           -35.3570405899       31.4058430856      -24.4078071866  TIP3      6002            0.0000000000
     40257      6194  TIP3      H1            -35.1597147666       30.5178571168      -24.7476515866  TIP3      6002            0.0000000000
     40258      6194  TIP3      H2            -36.0833948570       31.6998691615      -24.9647839017  TIP3      6002            0.0000000000
     40259      6195  TIP3      OH2           -30.9263217131       31.8358628777      -42.2333346612  TIP3      6003            0.0000000000
     40260      6195  TIP3      H1            -30.8640876665       31.0009440601      -41.7709767261  TIP3      6003            0.0000000000
     40261      6195  TIP3      H2            -30.3607177593       31.6313866434      -43.0018041039  TIP3      6003            0.0000000000
     40262      6196  TIP3      OH2           -22.9412727801       31.3006484668      -27.6133531905  TIP3      6004            0.0000000000
     40263      6196  TIP3      H1            -22.1459084191       31.8671402790      -27.7105042865  TIP3      6004            0.0000000000
     40264      6196  TIP3      H2            -23.6378021963       31.9623677572      -27.5883598199  TIP3      6004            0.0000000000
     40265      6197  TIP3      OH2           -34.5285793819       28.6797116960      -25.0259387949  TIP3      6005            0.0000000000
     40266      6197  TIP3      H1            -34.0279392441       27.8477595382      -25.1333755575  TIP3      6005            0.0000000000
     40267      6197  TIP3      H2            -34.6635179192       28.6527887776      -24.0712199546  TIP3      6005            0.0000000000
     40268      6198  TIP3      OH2           -29.7941738714       29.8202137667      -39.9759539247  TIP3      6006            0.0000000000
     40269      6198  TIP3      H1            -30.2918627921       29.2984843793      -39.3232859931  TIP3      6006            0.0000000000
     40270      6198  TIP3      H2            -29.4938855590       29.1227947748      -40.6030472808  TIP3      6006            0.0000000000
     40271      6199  TIP3      OH2           -30.5407531192       27.6142454281      -27.6673368615  TIP3      6007            0.0000000000
     40272      6199  TIP3      H1            -31.1315235121       28.3338497187      -27.3936461787  TIP3      6007            0.0000000000
     40273      6199  TIP3      H2            -30.1517896469       27.9805098885      -28.4817647799  TIP3      6007            0.0000000000
     40274      6200  TIP3      OH2           -28.7364351759       28.0470012913      -41.7565324659  TIP3      6008            0.0000000000
     40275      6200  TIP3      H1            -28.8467085915       27.8460219227      -42.6939120502  TIP3      6008            0.0000000000
     40276      6200  TIP3      H2            -27.7555950676       28.1154287165      -41.6557136305  TIP3      6008            0.0000000000
     40277      6201  TIP3      OH2           -19.5252171254       30.4865684329       42.7479624257  TIP3      6009            0.0000000000
     40278      6201  TIP3      H1            -19.6388880657       29.9871499064       41.9227032856  TIP3      6009            0.0000000000
     40279      6201  TIP3      H2            -19.3257916434       31.3926723655       42.4741724048  TIP3      6009            0.0000000000
     40280      6202  TIP3      OH2           -30.1546865482       24.9812849644      -26.5867112980  TIP3      6010            0.0000000000
     40281      6202  TIP3      H1            -30.0174959114       24.2849195106      -27.2560122632  TIP3      6010            0.0000000000
     40282      6202  TIP3      H2            -30.1941876130       25.7966054851      -27.1326496687  TIP3      6010            0.0000000000
     40283      6203  TIP3      OH2           -29.7336451450       23.3710096262      -29.0506388119  TIP3      6011            0.0000000000
     40284      6203  TIP3      H1            -29.2158959433       23.8338477504      -29.7520955501  TIP3      6011            0.0000000000
     40285      6203  TIP3      H2            -30.6204027253       23.2919038826      -29.4733426082  TIP3      6011            0.0000000000
     40286      6204  TIP3      OH2           -28.1824725004       28.8643180769      -28.8004623070  TIP3      6012            0.0000000000
     40287      6204  TIP3      H1            -27.4384432137       28.6893307209      -29.3868637269  TIP3      6012            0.0000000000
     40288      6204  TIP3      H2            -28.5674116389       29.6811756975      -29.1635688417  TIP3      6012            0.0000000000
     40289      6205  TIP3      OH2           -23.7854077368       26.5988653353      -23.8901499707  TIP3      6013            0.0000000000
     40290      6205  TIP3      H1            -23.5168452134       25.6750815375      -23.9072636482  TIP3      6013            0.0000000000
     40291      6205  TIP3      H2            -22.9413182600       27.0653770413      -23.8746588514  TIP3      6013            0.0000000000
     40292      6206  TIP3      OH2           -22.4473768946       29.4012737987      -25.7147867390  TIP3      6014            0.0000000000
     40293      6206  TIP3      H1            -22.7070725268       30.1414437562      -26.3017450194  TIP3      6014            0.0000000000
     40294      6206  TIP3      H2            -21.4838876146       29.3780403195      -25.9002489994  TIP3      6014            0.0000000000
     40295      6207  TIP3      OH2           -31.6789433075       26.2252602330      -24.6639497628  TIP3      6015            0.0000000000
     40296      6207  TIP3      H1            -32.4421141315       25.6651016737      -24.8652613605  TIP3      6015            0.0000000000
     40297      6207  TIP3      H2            -31.0108268958       25.9035522995      -25.2940703234  TIP3      6015            0.0000000000
     40298      6208  TIP3      OH2           -28.9512000530       20.7997613287      -28.6482687396  TIP3      6016            0.0000000000
     40299      6208  TIP3      H1            -29.1123454694       21.7660372788      -28.7593490199  TIP3      6016            0.0000000000
     40300      6208  TIP3      H2            -29.6940851800       20.4406984832      -29.1630663778  TIP3      6016            0.0000000000
     40301      6209  TIP3      OH2           -27.6425105697       25.0850688570      -25.0620497284  TIP3      6017            0.0000000000
     40302      6209  TIP3      H1            -27.9877578746       24.9372498650      -24.1603206157  TIP3      6017            0.0000000000
     40303      6209  TIP3      H2            -28.4663419454       24.9658346687      -25.5645139832  TIP3      6017            0.0000000000
     40304      6210  TIP3      OH2           -24.9573317614       24.2420020117      -25.9894094846  TIP3      6018            0.0000000000
     40305      6210  TIP3      H1            -25.9136080497       24.3322606941      -25.8312619167  TIP3      6018            0.0000000000
     40306      6210  TIP3      H2            -24.6847390369       23.6388905220      -25.2767565121  TIP3      6018            0.0000000000
     40307      6211  TIP3      OH2           -23.3599245090       22.9159682968      -24.0229244422  TIP3      6019            0.0000000000
     40308      6211  TIP3      H1            -23.4314293316       21.9386612379      -24.0257032085  TIP3      6019            0.0000000000
     40309      6211  TIP3      H2            -23.6295814752       23.1843066466      -23.1179806979  TIP3      6019            0.0000000000
     40310      6212  TIP3      OH2           -33.4591883105       24.1636520925      -24.8787531061  TIP3      6020            0.0000000000
     40311      6212  TIP3      H1            -33.3349897382       23.4765689076      -25.5647159922  TIP3      6020            0.0000000000
     40312      6212  TIP3      H2            -33.6676565262       23.6934210117      -24.0816317819  TIP3      6020            0.0000000000
     40313      6213  TIP3      OH2           -28.7074471375       20.1998337920      -25.9775394614  TIP3      6021            0.0000000000
     40314      6213  TIP3      H1            -28.0539517387       19.4745482619      -25.9939281124  TIP3      6021            0.0000000000
     40315      6213  TIP3      H2            -28.8473314479       20.3439138449      -26.9294613949  TIP3      6021            0.0000000000
     40316      6214  TIP3      OH2           -28.3947482256       21.7760614925      -23.8818815093  TIP3      6022            0.0000000000
     40317      6214  TIP3      H1            -28.5311688848       21.3015521516      -24.7320258410  TIP3      6022            0.0000000000
     40318      6214  TIP3      H2            -28.9347932440       22.5826601361      -23.9611600977  TIP3      6022            0.0000000000
     40319      6215  TIP3      OH2           -35.2651913868       33.3109361075      -41.2161599451  TIP3      6023            0.0000000000
     40320      6215  TIP3      H1            -34.3161773268       33.4242482072      -40.9797835186  TIP3      6023            0.0000000000
     40321      6215  TIP3      H2            -35.2565597301       32.6991358987      -41.9533840145  TIP3      6023            0.0000000000
     40322      6216  TIP3      OH2           -20.2059516200       32.9412020685      -23.8410138567  TIP3      6024            0.0000000000
     40323      6216  TIP3      H1            -21.0613077419       32.9061429408      -23.3949118560  TIP3      6024            0.0000000000
     40324      6216  TIP3      H2            -19.7949686425       33.7177814176      -23.3894233718  TIP3      6024            0.0000000000
     40325      6217  TIP3      OH2           -18.8539798338       31.2288613226      -38.3956143067  TIP3      6025            0.0000000000
     40326      6217  TIP3      H1            -18.0264245856       31.6809412504      -38.1701516564  TIP3      6025            0.0000000000
     40327      6217  TIP3      H2            -18.8804002258       30.5343372986      -37.7029717502  TIP3      6025            0.0000000000
     40328      6218  TIP3      OH2           -18.5090328996       29.3387471403      -36.5025641324  TIP3      6026            0.0000000000
     40329      6218  TIP3      H1            -19.2544487402       28.8234296248      -36.1175288280  TIP3      6026            0.0000000000
     40330      6218  TIP3      H2            -17.9099655167       29.4719336302      -35.7394356685  TIP3      6026            0.0000000000
     40331      6219  TIP3      OH2           -18.7444410765       32.0317720244      -31.4938275910  TIP3      6027            0.0000000000
     40332      6219  TIP3      H1            -17.9352410657       31.6627889877      -31.8872294213  TIP3      6027            0.0000000000
     40333      6219  TIP3      H2            -18.6060239326       32.9869967215      -31.6638086260  TIP3      6027            0.0000000000
     40334      6220  TIP3      OH2           -20.2496072610       34.9159857199      -29.2103482545  TIP3      6028            0.0000000000
     40335      6220  TIP3      H1            -20.9360558023       35.2921030442      -28.6578561894  TIP3      6028            0.0000000000
     40336      6220  TIP3      H2            -20.7590308327       34.5478794753      -29.9699111873  TIP3      6028            0.0000000000
     40337      6221  TIP3      OH2           -18.2155844412       29.1593094045      -40.1311395502  TIP3      6029            0.0000000000
     40338      6221  TIP3      H1            -18.7991900741       29.5391681641      -40.8132502330  TIP3      6029            0.0000000000
     40339      6221  TIP3      H2            -18.2821677755       29.8610847749      -39.4501152182  TIP3      6029            0.0000000000
     40340      6222  TIP3      OH2           -20.2025498355       26.4252101384      -41.4950300349  TIP3      6030            0.0000000000
     40341      6222  TIP3      H1            -19.7678218608       27.0165308161      -42.1310000505  TIP3      6030            0.0000000000
     40342      6222  TIP3      H2            -20.0318593277       25.5834782234      -41.9618660450  TIP3      6030            0.0000000000
     40343      6223  TIP3      OH2           -20.6870518710       27.8140742204      -35.9320734946  TIP3      6031            0.0000000000
     40344      6223  TIP3      H1            -20.8385480654       26.8580223995      -35.9718060115  TIP3      6031            0.0000000000
     40345      6223  TIP3      H2            -21.0223643868       28.0332771128      -35.0434308602  TIP3      6031            0.0000000000
     40346      6224  TIP3      OH2           -35.4760627648       30.1777824627      -31.7666439617  TIP3      6032            0.0000000000
     40347      6224  TIP3      H1            -35.5400084361       29.8623751724      -32.7115310481  TIP3      6032            0.0000000000
     40348      6224  TIP3      H2            -34.6717374148       29.7188432783      -31.4755561316  TIP3      6032            0.0000000000
     40349      6225  TIP3      OH2           -19.8343958591       29.7485388914      -26.2397961359  TIP3      6033            0.0000000000
     40350      6225  TIP3      H1            -19.2391791523       29.0075116101      -26.1135746550  TIP3      6033            0.0000000000
     40351      6225  TIP3      H2            -19.2586037236       30.5450549687      -26.2202598045  TIP3      6033            0.0000000000
     40352      6226  TIP3      OH2           -20.5874441684       23.8064784609      -42.4899481465  TIP3      6034            0.0000000000
     40353      6226  TIP3      H1            -20.0069242068       23.4014966724      -41.8151442533  TIP3      6034            0.0000000000
     40354      6226  TIP3      H2            -21.4745735561       23.4690358046      -42.2777074322  TIP3      6034            0.0000000000
     40355      6227  TIP3      OH2           -21.0189578506       25.3978697531      -37.4573320718  TIP3      6035            0.0000000000
     40356      6227  TIP3      H1            -20.7126961423       24.4682073263      -37.3482324720  TIP3      6035            0.0000000000
     40357      6227  TIP3      H2            -20.2400028944       25.8012585868      -37.8630931156  TIP3      6035            0.0000000000
     40358      6228  TIP3      OH2           -20.3842191606       25.9419203837      -32.0289489996  TIP3      6036            0.0000000000
     40359      6228  TIP3      H1            -19.4236551989       26.1730021983      -32.0481873915  TIP3      6036            0.0000000000
     40360      6228  TIP3      H2            -20.5692196504       26.0831682323      -31.0865255172  TIP3      6036            0.0000000000
     40361      6229  TIP3      OH2           -20.3182779534       26.6677797038      -29.2696923959  TIP3      6037            0.0000000000
     40362      6229  TIP3      H1            -21.1865266440       26.9520748188      -28.9103344293  TIP3      6037            0.0000000000
     40363      6229  TIP3      H2            -19.8827000981       27.5293278524      -29.4707346344  TIP3      6037            0.0000000000
     40364      6230  TIP3      OH2           -35.8034800021       25.0472899043      -25.7502695776  TIP3      6038            0.0000000000
     40365      6230  TIP3      H1            -34.9224052376       24.9209266509      -25.3814658010  TIP3      6038            0.0000000000
     40366      6230  TIP3      H2            -36.3984253302       24.3931553467      -25.3178443734  TIP3      6038            0.0000000000
     40367      6231  TIP3      OH2           -20.3510805879       22.6705642164      -37.4301212840  TIP3      6039            0.0000000000
     40368      6231  TIP3      H1            -20.1434681939       22.2348115134      -36.5751530056  TIP3      6039            0.0000000000
     40369      6231  TIP3      H2            -20.9598341775       22.0430864501      -37.8738484774  TIP3      6039            0.0000000000
     40370      6232  TIP3      OH2           -34.8236847363       23.4178219997      -32.9379269954  TIP3      6040            0.0000000000
     40371      6232  TIP3      H1            -34.3468680990       22.6537274011      -32.5694196747  TIP3      6040            0.0000000000
     40372      6232  TIP3      H2            -34.3515561995       24.1503753632      -32.4901784250  TIP3      6040            0.0000000000
     40373      6233  TIP3      OH2           -35.9648393037       27.1946096526      -31.4418595763  TIP3      6041            0.0000000000
     40374      6233  TIP3      H1            -35.9899259102       26.8019763153      -32.3459452362  TIP3      6041            0.0000000000
     40375      6233  TIP3      H2            -35.9969441032       28.0952032066      -31.7624851884  TIP3      6041            0.0000000000
     40376      6234  TIP3      OH2           -18.5354584695       22.8936110137      -25.5912233436  TIP3      6042            0.0000000000
     40377      6234  TIP3      H1            -19.4854489890       23.0712921137      -25.6017199313  TIP3      6042            0.0000000000
     40378      6234  TIP3      H2            -18.4613771487       22.2504880143      -26.3085144327  TIP3      6042            0.0000000000
     40379      6235  TIP3      OH2           -18.5348824912       22.7381839647      -40.8665968154  TIP3      6043            0.0000000000
     40380      6235  TIP3      H1            -18.1027940933       22.0262865941      -41.3667545582  TIP3      6043            0.0000000000
     40381      6235  TIP3      H2            -17.8109894536       23.3886366190      -40.8464491458  TIP3      6043            0.0000000000
     40382      6236  TIP3      OH2           -35.7588020133       22.7539846650      -38.0902944772  TIP3      6044            0.0000000000
     40383      6236  TIP3      H1            -36.7138032117       22.9219513960      -38.1122424185  TIP3      6044            0.0000000000
     40384      6236  TIP3      H2            -35.5153806688       23.4366322700      -38.7576224309  TIP3      6044            0.0000000000
     40385      6237  TIP3      OH2            37.0337155963       21.3777257523      -29.2543946096  TIP3      6045            0.0000000000
     40386      6237  TIP3      H1             36.2351931797       21.1656474449      -28.7442838181  TIP3      6045            0.0000000000
     40387      6237  TIP3      H2             36.5592531372       21.9084390878      -29.9172111147  TIP3      6045            0.0000000000
     40388      6238  TIP3      OH2           -34.0979966382       34.6816847117      -25.2974899304  TIP3      6046            0.0000000000
     40389      6238  TIP3      H1            -34.9619910796       34.8013119247      -25.7046962331  TIP3      6046            0.0000000000
     40390      6238  TIP3      H2            -34.3169561842       34.5345555834      -24.3676445844  TIP3      6046            0.0000000000
     40391      6239  TIP3      OH2           -31.0462510614       35.6402814131      -28.9317435223  TIP3      6047            0.0000000000
     40392      6239  TIP3      H1            -31.5467777812       36.3692674066      -29.3366423607  TIP3      6047            0.0000000000
     40393      6239  TIP3      H2            -30.2105252297       35.6037900655      -29.4080960194  TIP3      6047            0.0000000000
     40394      6240  TIP3      OH2           -19.5006630746       20.9232813875      -27.7402425971  TIP3      6048            0.0000000000
     40395      6240  TIP3      H1            -20.3471464043       21.2042064362      -28.1186894217  TIP3      6048            0.0000000000
     40396      6240  TIP3      H2            -19.3344851936       20.0851040344      -28.2242011314  TIP3      6048            0.0000000000
     40397      6241  TIP3      OH2           -32.2258549518       35.8631077034      -32.8440303488  TIP3      6049            0.0000000000
     40398      6241  TIP3      H1            -32.2526175225       34.9923725711      -33.2410368621  TIP3      6049            0.0000000000
     40399      6241  TIP3      H2            -31.3465896840       36.2219141795      -33.0431345834  TIP3      6049            0.0000000000
     40400      6242  TIP3      OH2           -26.1133462562       22.3434898935      -33.4176748831  TIP3      6050            0.0000000000
     40401      6242  TIP3      H1            -26.7883229898       21.7008223410      -33.1408059511  TIP3      6050            0.0000000000
     40402      6242  TIP3      H2            -25.5598209735       21.8119347869      -34.0020087636  TIP3      6050            0.0000000000
     40403      6243  TIP3      OH2           -20.9777698671       20.3976579232      -33.3493995660  TIP3      6051            0.0000000000
     40404      6243  TIP3      H1            -20.3629456995       20.9856742634      -33.8561421954  TIP3      6051            0.0000000000
     40405      6243  TIP3      H2            -21.8596030914       20.7543176552      -33.5806681679  TIP3      6051            0.0000000000
     40406      6244  TIP3      OH2           -19.3051186520       21.6315832811      -35.0651125913  TIP3      6052            0.0000000000
     40407      6244  TIP3      H1            -18.6195590708       21.0603860520      -35.4883617989  TIP3      6052            0.0000000000
     40408      6244  TIP3      H2            -18.8059238423       22.4742706125      -34.9669328820  TIP3      6052            0.0000000000
     40409      6245  TIP3      OH2           -33.8270686434       20.9345392897      -35.5138314269  TIP3      6053            0.0000000000
     40410      6245  TIP3      H1            -34.4471375016       20.7143869996      -36.2203069186  TIP3      6053            0.0000000000
     40411      6245  TIP3      H2            -33.2273483680       20.1566385312      -35.6250788896  TIP3      6053            0.0000000000
     40412      6246  TIP3      OH2           -34.8991494498       20.7044278776      -39.7820974991  TIP3      6054            0.0000000000
     40413      6246  TIP3      H1            -34.4752997045       21.3373861321      -40.4021541061  TIP3      6054            0.0000000000
     40414      6246  TIP3      H2            -35.5413519952       21.2859005079      -39.3509658565  TIP3      6054            0.0000000000
     40415      6247  TIP3      OH2           -29.2657521036       20.8931246820      -35.7829598497  TIP3      6055            0.0000000000
     40416      6247  TIP3      H1            -28.3657860936       21.2558249557      -35.8498785308  TIP3      6055            0.0000000000
     40417      6247  TIP3      H2            -29.3069115814       20.6768392179      -34.8521696273  TIP3      6055            0.0000000000
     40418      6248  TIP3      OH2           -23.5665559351       20.9128697088      -34.1535531776  TIP3      6056            0.0000000000
     40419      6248  TIP3      H1            -23.6023493659       21.0239676435      -35.1109915031  TIP3      6056            0.0000000000
     40420      6248  TIP3      H2            -23.9371902568       20.0043448476      -34.0325907758  TIP3      6056            0.0000000000
     40421      6249  TIP3      OH2           -22.2881841865       20.9377221322      -38.4959641558  TIP3      6057            0.0000000000
     40422      6249  TIP3      H1            -23.0290713998       21.5408116930      -38.6537462558  TIP3      6057            0.0000000000
     40423      6249  TIP3      H2            -22.7333847579       20.0847803597      -38.2773554447  TIP3      6057            0.0000000000
     40424      6250  TIP3      OH2           -33.1615103446       22.6242962066      -41.2935378131  TIP3      6058            0.0000000000
     40425      6250  TIP3      H1            -32.6356166356       22.0521806494      -41.8613147583  TIP3      6058            0.0000000000
     40426      6250  TIP3      H2            -32.4618199540       22.9973814425      -40.7338801139  TIP3      6058            0.0000000000
     40427      6251  TIP3      OH2           -28.1134146910       22.9168337562      -38.9287440706  TIP3      6059            0.0000000000
     40428      6251  TIP3      H1            -27.8599600960       22.3367505899      -38.1930811300  TIP3      6059            0.0000000000
     40429      6251  TIP3      H2            -28.0550274406       23.7799979195      -38.4576680496  TIP3      6059            0.0000000000
     40430      6252  TIP3      OH2           -33.8921101514       21.5400976045      -25.9437724897  TIP3      6060            0.0000000000
     40431      6252  TIP3      H1            -34.2239702724       20.6390422637      -25.7620775025  TIP3      6060            0.0000000000
     40432      6252  TIP3      H2            -32.9293247347       21.4338846951      -25.8578306055  TIP3      6060            0.0000000000
     40433      6253  TIP3      OH2           -23.4337911163       20.1803317332      -24.3206437654  TIP3      6061            0.0000000000
     40434      6253  TIP3      H1            -23.3397818882       19.7247816422      -23.4634532099  TIP3      6061            0.0000000000
     40435      6253  TIP3      H2            -22.5260925625       20.1615933825      -24.6841979010  TIP3      6061            0.0000000000
     40436      6254  TIP3      OH2           -20.3780284034      -36.8475768159      -25.5289529184  TIP3      6062            0.0000000000
     40437      6254  TIP3      H1            -21.0366251586      -36.9831891652      -26.2111493459  TIP3      6062            0.0000000000
     40438      6254  TIP3      H2            -20.2927299361      -35.8851619938      -25.4931036673  TIP3      6062            0.0000000000
     40439      6255  TIP3      OH2            -5.8086549240       30.0825378518      -35.7075262808  TIP3      6063            0.0000000000
     40440      6255  TIP3      H1             -5.7991738416       31.0646199746      -35.7586441455  TIP3      6063            0.0000000000
     40441      6255  TIP3      H2             -6.5327170173       29.8671536572      -36.3156600124  TIP3      6063            0.0000000000
     40442      6256  TIP3      OH2            -6.9615237498       29.3963808612      -32.2063114985  TIP3      6064            0.0000000000
     40443      6256  TIP3      H1             -6.9513313552       28.7401233082      -31.4946703184  TIP3      6064            0.0000000000
     40444      6256  TIP3      H2             -7.2756500282       28.8757474045      -32.9625040808  TIP3      6064            0.0000000000
     40445      6257  TIP3      OH2           -14.5877365156       29.0349837435      -30.6565237632  TIP3      6065            0.0000000000
     40446      6257  TIP3      H1            -14.4987529800       28.3501293629      -29.9609195313  TIP3      6065            0.0000000000
     40447      6257  TIP3      H2            -13.8413305079       29.6098125669      -30.4368167537  TIP3      6065            0.0000000000
     40448      6258  TIP3      OH2            -3.2893262479       32.3141546825      -33.9217306967  TIP3      6066            0.0000000000
     40449      6258  TIP3      H1             -3.6481768485       31.5706789411      -33.4276965523  TIP3      6066            0.0000000000
     40450      6258  TIP3      H2             -3.1987687635       33.0135364335      -33.2524341307  TIP3      6066            0.0000000000
     40451      6259  TIP3      OH2           -13.6535023391       33.4869770144      -32.1234584150  TIP3      6067            0.0000000000
     40452      6259  TIP3      H1            -13.9850638195       32.6348994879      -32.4686239935  TIP3      6067            0.0000000000
     40453      6259  TIP3      H2            -12.7082567766       33.2841798501      -32.1085121130  TIP3      6067            0.0000000000
     40454      6260  TIP3      OH2           -17.0214909695       27.0465067064      -36.6714198997  TIP3      6068            0.0000000000
     40455      6260  TIP3      H1            -17.4601082737       27.9172051403      -36.7246422684  TIP3      6068            0.0000000000
     40456      6260  TIP3      H2            -17.5876046838       26.5099838771      -37.2431438293  TIP3      6068            0.0000000000
     40457      6261  TIP3      OH2           -16.3145849422       29.2690039950      -34.5267880318  TIP3      6069            0.0000000000
     40458      6261  TIP3      H1            -16.0456991393       28.4511720951      -34.0688343884  TIP3      6069            0.0000000000
     40459      6261  TIP3      H2            -15.6113646905       29.3709828568      -35.1858873255  TIP3      6069            0.0000000000
     40460      6262  TIP3      OH2            -8.5398405938       31.8317971975      -31.7778436314  TIP3      6070            0.0000000000
     40461      6262  TIP3      H1             -8.2524181141       31.1331128347      -32.3936814380  TIP3      6070            0.0000000000
     40462      6262  TIP3      H2             -7.7602229379       31.8744044018      -31.2021303444  TIP3      6070            0.0000000000
     40463      6263  TIP3      OH2             0.0392164538       23.4324333191      -31.0003295139  TIP3      6071            0.0000000000
     40464      6263  TIP3      H1              0.2083486005       24.0288056699      -30.2394391208  TIP3      6071            0.0000000000
     40465      6263  TIP3      H2              0.5950494254       23.8515720707      -31.6727349115  TIP3      6071            0.0000000000
     40466      6264  TIP3      OH2            -5.3995405900       26.2316892350      -31.4310147712  TIP3      6072            0.0000000000
     40467      6264  TIP3      H1             -5.2361179086       25.2716863146      -31.4281360061  TIP3      6072            0.0000000000
     40468      6264  TIP3      H2             -5.5029890486       26.3737341930      -32.3918334056  TIP3      6072            0.0000000000
     40469      6265  TIP3      OH2           -12.2830079889       24.3195172651      -34.2079837828  TIP3      6073            0.0000000000
     40470      6265  TIP3      H1            -12.1818768656       25.1572478151      -34.6959153601  TIP3      6073            0.0000000000
     40471      6265  TIP3      H2            -12.6866404766       23.7468320522      -34.8960153567  TIP3      6073            0.0000000000
     40472      6266  TIP3      OH2            -4.5455540906       24.4023774992      -35.8405887345  TIP3      6074            0.0000000000
     40473      6266  TIP3      H1             -3.8908158180       24.0893872066      -35.1731499372  TIP3      6074            0.0000000000
     40474      6266  TIP3      H2             -3.9834676840       24.9704429279      -36.3925325800  TIP3      6074            0.0000000000
     40475      6267  TIP3      OH2           -15.6588674743       26.7287686484      -33.4726596326  TIP3      6075            0.0000000000
     40476      6267  TIP3      H1            -14.9880061549       26.1806082986      -33.0227217158  TIP3      6075            0.0000000000
     40477      6267  TIP3      H2            -15.5601909362       26.4167901657      -34.3852768370  TIP3      6075            0.0000000000
     40478      6268  TIP3      OH2           -10.5008831610       28.2859027972      -34.1641828196  TIP3      6076            0.0000000000
     40479      6268  TIP3      H1             -9.8339281697       27.7056902118      -33.7591449088  TIP3      6076            0.0000000000
     40480      6268  TIP3      H2            -11.0210308144       27.6257414016      -34.6629591236  TIP3      6076            0.0000000000
     40481      6269  TIP3      OH2             0.4812813882       24.8331807776      -28.7302436193  TIP3      6077            0.0000000000
     40482      6269  TIP3      H1             -0.1402959040       25.5873355085      -28.8274727073  TIP3      6077            0.0000000000
     40483      6269  TIP3      H2              0.5169731709       24.7336813999      -27.7647590127  TIP3      6077            0.0000000000
     40484      6270  TIP3      OH2           -13.3816150805       23.2189075508      -30.1674716990  TIP3      6078            0.0000000000
     40485      6270  TIP3      H1            -13.6606242122       23.7873803830      -30.9154151267  TIP3      6078            0.0000000000
     40486      6270  TIP3      H2            -14.0610515515       23.4495147150      -29.4877632281  TIP3      6078            0.0000000000
     40487      6271  TIP3      OH2            -6.1164873799       32.6853793077      -36.5988617691  TIP3      6079            0.0000000000
     40488      6271  TIP3      H1             -6.3419412470       32.4306375568      -37.5046875787  TIP3      6079            0.0000000000
     40489      6271  TIP3      H2             -6.3908312571       33.6210293312      -36.5867373780  TIP3      6079            0.0000000000
     40490      6272  TIP3      OH2           -10.8646762486       30.8478175167      -29.9207472744  TIP3      6080            0.0000000000
     40491      6272  TIP3      H1            -11.5816810725       31.4819258659      -29.7041548241  TIP3      6080            0.0000000000
     40492      6272  TIP3      H2            -10.1603180117       31.4429030455      -30.2056932167  TIP3      6080            0.0000000000
     40493      6273  TIP3      OH2            -2.7424225088       23.7434063407      -33.8487321388  TIP3      6081            0.0000000000
     40494      6273  TIP3      H1             -2.9580568538       22.9761849310      -33.3108864395  TIP3      6081            0.0000000000
     40495      6273  TIP3      H2             -2.0706684398       24.1841290110      -33.3016702921  TIP3      6081            0.0000000000
     40496      6274  TIP3      OH2           -13.8160524465       25.0794731311      -32.1413532666  TIP3      6082            0.0000000000
     40497      6274  TIP3      H1            -13.1844697429       25.7633293530      -31.8233380917  TIP3      6082            0.0000000000
     40498      6274  TIP3      H2            -13.2951815071       24.6611308650      -32.8719262405  TIP3      6082            0.0000000000
     40499      6275  TIP3      OH2           -12.4050766264       32.8601485707      -29.1111628472  TIP3      6083            0.0000000000
     40500      6275  TIP3      H1            -12.4825483362       33.7635892064      -29.4618090616  TIP3      6083            0.0000000000
     40501      6275  TIP3      H2            -13.2944474323       32.7680049958      -28.6866829967  TIP3      6083            0.0000000000
     40502      6276  TIP3      OH2           -16.3600162338       32.5300383583      -38.3126967462  TIP3      6084            0.0000000000
     40503      6276  TIP3      H1            -16.5808264532       32.8345225666      -39.2151402158  TIP3      6084            0.0000000000
     40504      6276  TIP3      H2            -16.2760762235       33.3646365327      -37.8077139828  TIP3      6084            0.0000000000
     40505      6277  TIP3      OH2            -2.7326830623       34.1626318222      -31.5123464175  TIP3      6085            0.0000000000
     40506      6277  TIP3      H1             -3.6981096172       34.2546611208      -31.4206076108  TIP3      6085            0.0000000000
     40507      6277  TIP3      H2             -2.4073054258       35.0504761389      -31.7614348749  TIP3      6085            0.0000000000
     40508      6278  TIP3      OH2            -2.4044200054       22.4324093910      -30.1677799847  TIP3      6086            0.0000000000
     40509      6278  TIP3      H1             -3.1305866077       23.0640914743      -30.2528298081  TIP3      6086            0.0000000000
     40510      6278  TIP3      H2             -1.6937357620       22.8534659191      -30.6931382051  TIP3      6086            0.0000000000
     40511      6279  TIP3      OH2            -9.4320971783       20.5513809093      -32.7037546448  TIP3      6087            0.0000000000
     40512      6279  TIP3      H1             -9.5702822082       19.5877567572      -32.7746564577  TIP3      6087            0.0000000000
     40513      6279  TIP3      H2            -10.3106514136       20.8574546088      -32.4003930695  TIP3      6087            0.0000000000
     40514      6280  TIP3      OH2            -4.4452353149       35.6240857595      -35.1392691952  TIP3      6088            0.0000000000
     40515      6280  TIP3      H1             -3.8656226354       35.0281584810      -35.6533321584  TIP3      6088            0.0000000000
     40516      6280  TIP3      H2             -4.0561798121       36.4653521294      -35.3884941444  TIP3      6088            0.0000000000
     40517      6281  TIP3      OH2            -3.2061538405       33.7893530184      -36.5117440640  TIP3      6089            0.0000000000
     40518      6281  TIP3      H1             -3.5713617941       33.1127841041      -37.0923206270  TIP3      6089            0.0000000000
     40519      6281  TIP3      H2             -3.2064964835       33.3382522410      -35.6396274524  TIP3      6089            0.0000000000
     40520      6282  TIP3      OH2            -1.6817677655       32.4805919823      -27.9652995816  TIP3      6090            0.0000000000
     40521      6282  TIP3      H1             -1.4625508689       31.8044972182      -28.6482185317  TIP3      6090            0.0000000000
     40522      6282  TIP3      H2             -1.3810713107       33.2948632351      -28.4001496489  TIP3      6090            0.0000000000
     40523      6283  TIP3      OH2            -7.1495420405       29.3525286904      -38.2053180404  TIP3      6091            0.0000000000
     40524      6283  TIP3      H1             -7.8407442119       29.9270699376      -38.5933652157  TIP3      6091            0.0000000000
     40525      6283  TIP3      H2             -6.4373997663       29.4351917937      -38.8668761295  TIP3      6091            0.0000000000
     40526      6284  TIP3      OH2            -7.1031025899       27.8737970362      -41.1179864383  TIP3      6092            0.0000000000
     40527      6284  TIP3      H1             -6.3663880834       27.8753173435      -40.4853889671  TIP3      6092            0.0000000000
     40528      6284  TIP3      H2             -6.7747451384       27.2378663300      -41.7590059911  TIP3      6092            0.0000000000
     40529      6285  TIP3      OH2             0.1789442120       28.7114221818      -29.9872265143  TIP3      6093            0.0000000000
     40530      6285  TIP3      H1             -0.3969222765       29.4936390939      -29.8564715908  TIP3      6093            0.0000000000
     40531      6285  TIP3      H2              0.7442591251       29.0037686524      -30.7197200792  TIP3      6093            0.0000000000
     40532      6286  TIP3      OH2            -3.7039475581       29.5631340868      -37.2498373190  TIP3      6094            0.0000000000
     40533      6286  TIP3      H1             -4.4514103993       29.7970456513      -36.6506177282  TIP3      6094            0.0000000000
     40534      6286  TIP3      H2             -3.2303405372       28.8771439670      -36.7452819591  TIP3      6094            0.0000000000
     40535      6287  TIP3      OH2            -3.7948293532       27.7107249734      -28.1699094799  TIP3      6095            0.0000000000
     40536      6287  TIP3      H1             -3.7653311419       28.5210751679      -27.6308245543  TIP3      6095            0.0000000000
     40537      6287  TIP3      H2             -4.4143961962       28.0180206005      -28.8589634463  TIP3      6095            0.0000000000
     40538      6288  TIP3      OH2           -12.0818456838       30.2170728780      -35.3587396981  TIP3      6096            0.0000000000
     40539      6288  TIP3      H1            -12.4048215986       29.8231229453      -36.2039630891  TIP3      6096            0.0000000000
     40540      6288  TIP3      H2            -11.4699936502       29.5239627466      -35.0221990948  TIP3      6096            0.0000000000
     40541      6289  TIP3      OH2           -10.7005581904       33.6627676719      -32.6959301313  TIP3      6097            0.0000000000
     40542      6289  TIP3      H1            -10.7917525417       33.0761892337      -33.4637916083  TIP3      6097            0.0000000000
     40543      6289  TIP3      H2            -10.0121875031       33.1954033869      -32.1951995514  TIP3      6097            0.0000000000
     40544      6290  TIP3      OH2           -11.7505508630       28.9619424854      -31.6990882174  TIP3      6098            0.0000000000
     40545      6290  TIP3      H1            -11.1971308790       29.0644124387      -32.4980193190  TIP3      6098            0.0000000000
     40546      6290  TIP3      H2            -11.3655885619       29.6253778878      -31.0854172905  TIP3      6098            0.0000000000
     40547      6291  TIP3      OH2            -5.4692876576       34.5211930039      -31.0230074883  TIP3      6099            0.0000000000
     40548      6291  TIP3      H1             -5.5340821670       35.1285308406      -30.2776044710  TIP3      6099            0.0000000000
     40549      6291  TIP3      H2             -5.5359683778       33.6443923430      -30.5559165212  TIP3      6099            0.0000000000
     40550      6292  TIP3      OH2           -10.7986333144       33.4023890672      -26.9914231394  TIP3      6100            0.0000000000
     40551      6292  TIP3      H1            -11.2208308926       34.1500141971      -26.5132086966  TIP3      6100            0.0000000000
     40552      6292  TIP3      H2            -11.4591817745       33.1887339626      -27.6969873959  TIP3      6100            0.0000000000
     40553      6293  TIP3      OH2            -4.8201181628       28.7269470191      -39.5939313764  TIP3      6101            0.0000000000
     40554      6293  TIP3      H1             -4.2733935220       28.9267580929      -38.7957320398  TIP3      6101            0.0000000000
     40555      6293  TIP3      H2             -4.4147997415       29.2678210961      -40.2984273160  TIP3      6101            0.0000000000
     40556      6294  TIP3      OH2           -13.8718799215       29.5461167182      -27.8241678364  TIP3      6102            0.0000000000
     40557      6294  TIP3      H1            -13.8151059490       30.2252556707      -27.1252194582  TIP3      6102            0.0000000000
     40558      6294  TIP3      H2            -14.8048759438       29.6476617284      -28.0627038078  TIP3      6102            0.0000000000
     40559      6295  TIP3      OH2            -7.1851635490       35.4397146013      -36.0720451933  TIP3      6103            0.0000000000
     40560      6295  TIP3      H1             -6.6269933937       35.7929880426      -35.3807704126  TIP3      6103            0.0000000000
     40561      6295  TIP3      H2             -7.6470428731       36.2128372996      -36.4191450889  TIP3      6103            0.0000000000
     40562      6296  TIP3      OH2           -12.5644682026       35.3512224864      -26.2602539207  TIP3      6104            0.0000000000
     40563      6296  TIP3      H1            -12.6296683898       35.3143512164      -27.2346772443  TIP3      6104            0.0000000000
     40564      6296  TIP3      H2            -13.5011984213       35.2770507003      -26.0016974469  TIP3      6104            0.0000000000
     40565      6297  TIP3      OH2            -1.1102951328       20.4835758707      -39.7153829590  TIP3      6105            0.0000000000
     40566      6297  TIP3      H1             -2.0577739329       20.6014691958      -39.4607032410  TIP3      6105            0.0000000000
     40567      6297  TIP3      H2             -0.8871665905       21.3380249698      -40.1211527122  TIP3      6105            0.0000000000
     40568      6298  TIP3      OH2           -13.1182164940       29.2443092727      -37.7420633899  TIP3      6106            0.0000000000
     40569      6298  TIP3      H1            -13.3943287093       30.0184382829      -38.2716416726  TIP3      6106            0.0000000000
     40570      6298  TIP3      H2            -13.7688337305       28.5776908100      -37.9739060501  TIP3      6106            0.0000000000
     40571      6299  TIP3      OH2             0.0382032867       34.8417475113      -41.4470484132  TIP3      6107            0.0000000000
     40572      6299  TIP3      H1              0.0506071812       35.6966568532      -40.9948219051  TIP3      6107            0.0000000000
     40573      6299  TIP3      H2              0.9394479776       34.4651369042      -41.3303149146  TIP3      6107            0.0000000000
     40574      6300  TIP3      OH2           -17.0091002154       31.6719818825      -28.8886892017  TIP3      6108            0.0000000000
     40575      6300  TIP3      H1            -17.4699944456       31.5888832569      -29.7422256953  TIP3      6108            0.0000000000
     40576      6300  TIP3      H2            -16.9531676474       30.7301399550      -28.6405153984  TIP3      6108            0.0000000000
     40577      6301  TIP3      OH2           -17.2383821972       34.3651299145      -32.0358325254  TIP3      6109            0.0000000000
     40578      6301  TIP3      H1            -16.2807822993       34.3081117433      -32.1089898903  TIP3      6109            0.0000000000
     40579      6301  TIP3      H2            -17.3297448943       35.1925988606      -31.5380306061  TIP3      6109            0.0000000000
     40580      6302  TIP3      OH2             0.9523993858       35.1004301052      -26.3178896935  TIP3      6110            0.0000000000
     40581      6302  TIP3      H1              0.8801016971       34.1339377376      -26.4315468509  TIP3      6110            0.0000000000
     40582      6302  TIP3      H2              0.0594694846       35.3634419649      -26.0179962195  TIP3      6110            0.0000000000
     40583      6303  TIP3      OH2            -8.1032078426       34.6840427584      -27.5405192696  TIP3      6111            0.0000000000
     40584      6303  TIP3      H1             -7.9708967555       35.4555757590      -26.9684017275  TIP3      6111            0.0000000000
     40585      6303  TIP3      H2             -8.9229092779       34.2624155401      -27.2159140788  TIP3      6111            0.0000000000
     40586      6304  TIP3      OH2            -1.8936963153       26.5746932136      -25.9185100769  TIP3      6112            0.0000000000
     40587      6304  TIP3      H1             -2.3493720511       27.0316119252      -26.6386029849  TIP3      6112            0.0000000000
     40588      6304  TIP3      H2             -1.8618944848       25.6505699058      -26.2114577837  TIP3      6112            0.0000000000
     40589      6305  TIP3      OH2           -14.7363485770       32.9890246260      -27.8991650220  TIP3      6113            0.0000000000
     40590      6305  TIP3      H1            -14.5299069081       32.6079339245      -27.0213901336  TIP3      6113            0.0000000000
     40591      6305  TIP3      H2            -15.6027803792       32.5941338166      -28.1303724481  TIP3      6113            0.0000000000
     40592      6306  TIP3      OH2           -12.0622806614       21.4510682700      -31.9500931193  TIP3      6114            0.0000000000
     40593      6306  TIP3      H1            -12.9650910610       21.3320506741      -32.3200151333  TIP3      6114            0.0000000000
     40594      6306  TIP3      H2            -12.1874382621       22.2867212880      -31.4719237106  TIP3      6114            0.0000000000
     40595      6307  TIP3      OH2            -7.4172758602       21.1234796002      -28.5810955874  TIP3      6115            0.0000000000
     40596      6307  TIP3      H1             -7.0296053590       20.7066775208      -27.7875115800  TIP3      6115            0.0000000000
     40597      6307  TIP3      H2             -8.3896248910       21.0014734800      -28.4425828152  TIP3      6115            0.0000000000
     40598      6308  TIP3      OH2            -4.1541959733       24.9451830958      -27.7377048066  TIP3      6116            0.0000000000
     40599      6308  TIP3      H1             -4.6726687414       24.7555244807      -26.9162613514  TIP3      6116            0.0000000000
     40600      6308  TIP3      H2             -4.2902869703       25.8921578857      -27.9075970302  TIP3      6116            0.0000000000
     40601      6309  TIP3      OH2            -3.2976669684       29.8306158806      -41.7748218156  TIP3      6117            0.0000000000
     40602      6309  TIP3      H1             -3.2919213340       29.6429486508      -42.7305640820  TIP3      6117            0.0000000000
     40603      6309  TIP3      H2             -2.4278786940       30.2515766458      -41.6671614477  TIP3      6117            0.0000000000
     40604      6310  TIP3      OH2            -7.7696887942       23.6941994236      -41.2481915149  TIP3      6118            0.0000000000
     40605      6310  TIP3      H1             -8.0863131285       23.6469007530      -40.3279708838  TIP3      6118            0.0000000000
     40606      6310  TIP3      H2             -8.0482273484       22.8165247694      -41.5378102872  TIP3      6118            0.0000000000
     40607      6311  TIP3      OH2           -11.9561044243       26.4265988077      -30.7068076935  TIP3      6119            0.0000000000
     40608      6311  TIP3      H1            -12.6940920171       26.4106283861      -30.0682740939  TIP3      6119            0.0000000000
     40609      6311  TIP3      H2            -12.0036793068       27.3371561016      -31.0718844585  TIP3      6119            0.0000000000
     40610      6312  TIP3      OH2           -12.0027228973       26.5513888236      -35.8416810293  TIP3      6120            0.0000000000
     40611      6312  TIP3      H1            -12.9358530845       26.2906503596      -35.9732216955  TIP3      6120            0.0000000000
     40612      6312  TIP3      H2            -11.6178691510       26.2537253180      -36.6890229270  TIP3      6120            0.0000000000
     40613      6313  TIP3      OH2            -6.4736081345       27.0354542088      -37.0899347773  TIP3      6121            0.0000000000
     40614      6313  TIP3      H1             -6.8810560417       27.8721996848      -37.4100361210  TIP3      6121            0.0000000000
     40615      6313  TIP3      H2             -5.7814430850       26.8883700101      -37.7612345165  TIP3      6121            0.0000000000
     40616      6314  TIP3      OH2            -7.4272717371       27.2691662780      -25.5966504431  TIP3      6122            0.0000000000
     40617      6314  TIP3      H1             -7.9548065652       26.4781828557      -25.3290078898  TIP3      6122            0.0000000000
     40618      6314  TIP3      H2             -6.5788480472       27.1156035134      -25.1673606966  TIP3      6122            0.0000000000
     40619      6315  TIP3      OH2            -5.4444172154       26.5320155271      -34.2218878329  TIP3      6123            0.0000000000
     40620      6315  TIP3      H1             -5.7196900586       27.0971523662      -34.9646754780  TIP3      6123            0.0000000000
     40621      6315  TIP3      H2             -5.3429477222       25.6841514373      -34.6948676898  TIP3      6123            0.0000000000
     40622      6316  TIP3      OH2           -14.3312013860       26.6877981999      -29.0143748859  TIP3      6124            0.0000000000
     40623      6316  TIP3      H1            -14.2630792851       27.0877928012      -28.1303276338  TIP3      6124            0.0000000000
     40624      6316  TIP3      H2            -14.7761477409       25.8476699828      -28.8154459950  TIP3      6124            0.0000000000
     40625      6317  TIP3      OH2           -10.7905936239       24.2959455146      -41.8480237257  TIP3      6125            0.0000000000
     40626      6317  TIP3      H1            -11.3360655577       23.6664306114      -41.3310106212  TIP3      6125            0.0000000000
     40627      6317  TIP3      H2            -11.4030138229       24.6528213870      -42.4905055286  TIP3      6125            0.0000000000
     40628      6318  TIP3      OH2           -17.6778662864       23.7962195439      -35.0389551123  TIP3      6126            0.0000000000
     40629      6318  TIP3      H1            -16.9986925826       23.7579143289      -34.3361700054  TIP3      6126            0.0000000000
     40630      6318  TIP3      H2            -17.2263014146       23.4093117722      -35.8114827695  TIP3      6126            0.0000000000
     40631      6319  TIP3      OH2           -16.3825168590       24.5190754713      -39.6669769039  TIP3      6127            0.0000000000
     40632      6319  TIP3      H1            -15.8967142443       25.1135395500      -40.2743838542  TIP3      6127            0.0000000000
     40633      6319  TIP3      H2            -17.0767250999       25.1370205738      -39.3509112073  TIP3      6127            0.0000000000
     40634      6320  TIP3      OH2            -6.2484427380       28.1249315417      -29.6634252863  TIP3      6128            0.0000000000
     40635      6320  TIP3      H1             -5.8678822380       27.4413027927      -30.2515204209  TIP3      6128            0.0000000000
     40636      6320  TIP3      H2             -6.7045761372       27.5916920257      -28.9893997875  TIP3      6128            0.0000000000
     40637      6321  TIP3      OH2            -9.4398782986       24.0965432423      -34.8330095977  TIP3      6129            0.0000000000
     40638      6321  TIP3      H1            -10.3735444163       24.1032810795      -34.5392604345  TIP3      6129            0.0000000000
     40639      6321  TIP3      H2             -8.9573671526       23.9386752240      -34.0083142764  TIP3      6129            0.0000000000
     40640      6322  TIP3      OH2           -14.6316142933       25.6525981211      -35.9630249041  TIP3      6130            0.0000000000
     40641      6322  TIP3      H1            -15.5173839542       25.8016786077      -36.3527246933  TIP3      6130            0.0000000000
     40642      6322  TIP3      H2            -14.3450598970       24.8176480801      -36.3683226107  TIP3      6130            0.0000000000
     40643      6323  TIP3      OH2           -10.9945341126       25.7126579254      -38.3308086839  TIP3      6131            0.0000000000
     40644      6323  TIP3      H1            -10.0357763150       25.8117807210      -38.1645886577  TIP3      6131            0.0000000000
     40645      6323  TIP3      H2            -11.2202773525       26.3639400893      -39.0162602114  TIP3      6131            0.0000000000
     40646      6324  TIP3      OH2            -5.0351770658       23.3289255260      -31.5902011737  TIP3      6132            0.0000000000
     40647      6324  TIP3      H1             -5.7196408599       23.3886619769      -30.8841754689  TIP3      6132            0.0000000000
     40648      6324  TIP3      H2             -5.5469859216       23.0858004796      -32.3745214458  TIP3      6132            0.0000000000
     40649      6325  TIP3      OH2           -12.2939170794       26.8692428586      -40.7382064378  TIP3      6133            0.0000000000
     40650      6325  TIP3      H1            -12.8473569820       26.5191054879      -41.4583749651  TIP3      6133            0.0000000000
     40651      6325  TIP3      H2            -11.4663663651       27.0848663425      -41.1984084033  TIP3      6133            0.0000000000
     40652      6326  TIP3      OH2           -14.1695910666       31.4606875949      -25.6810463543  TIP3      6134            0.0000000000
     40653      6326  TIP3      H1            -13.4452165720       31.6868062884      -25.0707874402  TIP3      6134            0.0000000000
     40654      6326  TIP3      H2            -14.9383957243       31.5695652908      -25.0826654490  TIP3      6134            0.0000000000
     40655      6327  TIP3      OH2            -8.1570037224       26.8553005988      -32.9363817615  TIP3      6135            0.0000000000
     40656      6327  TIP3      H1             -7.5612773549       26.3184880581      -33.4729795831  TIP3      6135            0.0000000000
     40657      6327  TIP3      H2             -8.3022378932       26.3066147040      -32.1541545734  TIP3      6135            0.0000000000
     40658      6328  TIP3      OH2           -13.1478580359       22.9974987806      -36.4911975948  TIP3      6136            0.0000000000
     40659      6328  TIP3      H1            -13.4569579380       22.0745248501      -36.5161152992  TIP3      6136            0.0000000000
     40660      6328  TIP3      H2            -12.3611052388       22.9395482072      -37.0522385177  TIP3      6136            0.0000000000
     40661      6329  TIP3      OH2            -9.5191009532       25.1852606598      -30.5238921431  TIP3      6137            0.0000000000
     40662      6329  TIP3      H1            -10.3454933170       25.6995683252      -30.4313579613  TIP3      6137            0.0000000000
     40663      6329  TIP3      H2             -8.9666871787       25.5315873137      -29.7958217327  TIP3      6137            0.0000000000
     40664      6330  TIP3      OH2            -8.9263325105       31.3933057340      -38.8065718929  TIP3      6138            0.0000000000
     40665      6330  TIP3      H1             -9.7263183062       30.9354902997      -39.1458056659  TIP3      6138            0.0000000000
     40666      6330  TIP3      H2             -9.1449600109       31.5047190501      -37.8631274813  TIP3      6138            0.0000000000
     40667      6331  TIP3      OH2            -1.7756271221       30.5956102194      -30.0381766919  TIP3      6139            0.0000000000
     40668      6331  TIP3      H1             -1.1693355108       31.0869670570      -30.6266049711  TIP3      6139            0.0000000000
     40669      6331  TIP3      H2             -2.6221852512       30.6688403238      -30.5141869420  TIP3      6139            0.0000000000
     40670      6332  TIP3      OH2            -5.0613096267       24.2030259535      -40.6395812587  TIP3      6140            0.0000000000
     40671      6332  TIP3      H1             -6.0079273571       24.3571275891      -40.8093953978  TIP3      6140            0.0000000000
     40672      6332  TIP3      H2             -4.7647608988       25.0768042049      -40.3276467990  TIP3      6140            0.0000000000
     40673      6333  TIP3      OH2            -7.4818178631       31.6770652714      -27.6314618135  TIP3      6141            0.0000000000
     40674      6333  TIP3      H1             -7.7814542793       31.2508855159      -26.8180586687  TIP3      6141            0.0000000000
     40675      6333  TIP3      H2             -7.6744779548       32.6010761178      -27.4653420770  TIP3      6141            0.0000000000
     40676      6334  TIP3      OH2            -4.3605556151       26.1395763703      -38.9740651229  TIP3      6142            0.0000000000
     40677      6334  TIP3      H1             -3.4620364397       26.0014940078      -38.6170524245  TIP3      6142            0.0000000000
     40678      6334  TIP3      H2             -4.2744084715       26.9466217099      -39.5044028772  TIP3      6142            0.0000000000
     40679      6335  TIP3      OH2           -13.8272123572       30.7919981614      -33.0271498769  TIP3      6143            0.0000000000
     40680      6335  TIP3      H1            -13.1296918437       30.7263229155      -33.7089558263  TIP3      6143            0.0000000000
     40681      6335  TIP3      H2            -13.7609004455       29.9340183528      -32.5724962290  TIP3      6143            0.0000000000
     40682      6336  TIP3      OH2            -6.8332176152       32.8698761828      -39.7885693937  TIP3      6144            0.0000000000
     40683      6336  TIP3      H1             -7.1746036264       33.7118207151      -39.4362680712  TIP3      6144            0.0000000000
     40684      6336  TIP3      H2             -7.5753087709       32.2625370170      -39.5901353940  TIP3      6144            0.0000000000
     40685      6337  TIP3      OH2           -16.8458128148       29.2028692275      -27.7485649595  TIP3      6145            0.0000000000
     40686      6337  TIP3      H1            -16.6275989381       28.7491256704      -26.9179626626  TIP3      6145            0.0000000000
     40687      6337  TIP3      H2            -17.4463174112       28.5815365076      -28.2059490276  TIP3      6145            0.0000000000
     40688      6338  TIP3      OH2            -9.8114790121       28.7539552595      -25.5810146389  TIP3      6146            0.0000000000
     40689      6338  TIP3      H1            -10.1357131541       28.4658326932      -26.4478642490  TIP3      6146            0.0000000000
     40690      6338  TIP3      H2             -8.8824095691       28.4582609879      -25.6044004749  TIP3      6146            0.0000000000
     40691      6339  TIP3      OH2            -5.1716011457       34.1555392551      -27.7163647920  TIP3      6147            0.0000000000
     40692      6339  TIP3      H1             -6.1116550922       34.2654613096      -27.8524946558  TIP3      6147            0.0000000000
     40693      6339  TIP3      H2             -5.1672150497       34.3176898220      -26.7313839737  TIP3      6147            0.0000000000
     40694      6340  TIP3      OH2             0.5317445404       26.2764350393      -39.2292687595  TIP3      6148            0.0000000000
     40695      6340  TIP3      H1             -0.0292451985       25.9646411099      -39.9608350704  TIP3      6148            0.0000000000
     40696      6340  TIP3      H2              0.6125331707       27.2141628625      -39.5112983427  TIP3      6148            0.0000000000
     40697      6341  TIP3      OH2             0.5333970798       32.1180908856      -26.4124506544  TIP3      6149            0.0000000000
     40698      6341  TIP3      H1             -0.3338832879       32.3417400715      -26.8172301065  TIP3      6149            0.0000000000
     40699      6341  TIP3      H2              1.0778286762       32.0491168129      -27.2311074171  TIP3      6149            0.0000000000
     40700      6342  TIP3      OH2            -1.0427260840       34.9149436898      -38.6906782995  TIP3      6150            0.0000000000
     40701      6342  TIP3      H1             -1.5884362761       34.1581993760      -38.4796053692  TIP3      6150            0.0000000000
     40702      6342  TIP3      H2             -0.9298338344       34.8727642642      -39.6428342012  TIP3      6150            0.0000000000
     40703      6343  TIP3      OH2            -3.9700226271       29.9184315970      -31.7420553486  TIP3      6151            0.0000000000
     40704      6343  TIP3      H1             -4.9065606158       29.6917384843      -31.8486085998  TIP3      6151            0.0000000000
     40705      6343  TIP3      H2             -3.5365848003       29.1587373485      -32.1720736467  TIP3      6151            0.0000000000
     40706      6344  TIP3      OH2           -11.4045344514       34.2311835525      -35.6944282123  TIP3      6152            0.0000000000
     40707      6344  TIP3      H1            -10.9497876303       35.0670758431      -35.8385027233  TIP3      6152            0.0000000000
     40708      6344  TIP3      H2            -12.3165634561       34.4492401994      -35.9261094589  TIP3      6152            0.0000000000
     40709      6345  TIP3      OH2           -15.7190672406       29.1113133049      -41.1074087218  TIP3      6153            0.0000000000
     40710      6345  TIP3      H1            -15.0948137268       29.7372032012      -40.6939853505  TIP3      6153            0.0000000000
     40711      6345  TIP3      H2            -16.5880199371       29.3975183960      -40.7779924973  TIP3      6153            0.0000000000
     40712      6346  TIP3      OH2            -9.9921066647       31.9185254004      -36.0720680894  TIP3      6154            0.0000000000
     40713      6346  TIP3      H1            -10.3358527208       32.8313239700      -36.0494377921  TIP3      6154            0.0000000000
     40714      6346  TIP3      H2            -10.7470625378       31.4389281767      -35.6803107725  TIP3      6154            0.0000000000
     40715      6347  TIP3      OH2            -9.1653835001       35.7743466657      -30.0846119707  TIP3      6155            0.0000000000
     40716      6347  TIP3      H1             -9.1792395565       36.7522584085      -30.0518012658  TIP3      6155            0.0000000000
     40717      6347  TIP3      H2             -9.0033090064       35.6503459586      -29.1242443200  TIP3      6155            0.0000000000
     40718      6348  TIP3      OH2            -6.0606477446       32.1218919961      -30.1072932276  TIP3      6156            0.0000000000
     40719      6348  TIP3      H1             -6.3915758474       31.8931745600      -29.2104686674  TIP3      6156            0.0000000000
     40720      6348  TIP3      H2             -5.4202861310       31.4048124678      -30.2577235605  TIP3      6156            0.0000000000
     40721      6349  TIP3      OH2            -3.7645962093       33.1262212090      -40.9762095404  TIP3      6157            0.0000000000
     40722      6349  TIP3      H1             -3.4501601824       32.7064645196      -40.1494139794  TIP3      6157            0.0000000000
     40723      6349  TIP3      H2             -4.7192384882       32.9745147978      -40.8991603904  TIP3      6157            0.0000000000
     40724      6350  TIP3      OH2           -15.1745920197       23.9460732910      -28.2075326408  TIP3      6158            0.0000000000
     40725      6350  TIP3      H1            -16.0858918266       24.2903316766      -28.2353616947  TIP3      6158            0.0000000000
     40726      6350  TIP3      H2            -15.2924397159       23.0887127774      -27.7546643984  TIP3      6158            0.0000000000
     40727      6351  TIP3      OH2            -2.9363868108       31.7349377852      -38.7842494416  TIP3      6159            0.0000000000
     40728      6351  TIP3      H1             -3.1786852802       30.9784236611      -38.2168626421  TIP3      6159            0.0000000000
     40729      6351  TIP3      H2             -2.0036389840       31.8756748453      -38.5494488586  TIP3      6159            0.0000000000
     40730      6352  TIP3      OH2           -15.5464082845       35.6959124153      -29.8029626087  TIP3      6160            0.0000000000
     40731      6352  TIP3      H1            -15.2835363802       34.7756296420      -29.7560967682  TIP3      6160            0.0000000000
     40732      6352  TIP3      H2            -15.3613117937       36.0280813568      -28.9118104649  TIP3      6160            0.0000000000
     40733      6353  TIP3      OH2           -10.8103958736       33.7741820498      -40.1039686618  TIP3      6161            0.0000000000
     40734      6353  TIP3      H1            -10.5738771065       33.2297231768      -39.3429312684  TIP3      6161            0.0000000000
     40735      6353  TIP3      H2            -10.7222233369       34.6789122942      -39.7591613368  TIP3      6161            0.0000000000
     40736      6354  TIP3      OH2           -14.3311816461       31.0458851529      -39.6234244243  TIP3      6162            0.0000000000
     40737      6354  TIP3      H1            -14.9901446096       31.4420785867      -39.0158417099  TIP3      6162            0.0000000000
     40738      6354  TIP3      H2            -13.7674753820       31.8097694321      -39.8461163912  TIP3      6162            0.0000000000
     40739      6355  TIP3      OH2            -6.4499102550       23.7071379673      -29.2759296877  TIP3      6163            0.0000000000
     40740      6355  TIP3      H1             -5.7380408003       23.7672500976      -28.6259797844  TIP3      6163            0.0000000000
     40741      6355  TIP3      H2             -6.8362459086       22.8335222758      -29.0650268307  TIP3      6163            0.0000000000
     40742      6356  TIP3      OH2            -5.7139305031       23.2998511849      -38.1551147314  TIP3      6164            0.0000000000
     40743      6356  TIP3      H1             -5.4621255037       23.7586421448      -38.9833965841  TIP3      6164            0.0000000000
     40744      6356  TIP3      H2             -5.1241086669       23.7267959955      -37.5237892993  TIP3      6164            0.0000000000
     40745      6357  TIP3      OH2            -8.0015004406       35.4601026996      -39.3062333396  TIP3      6165            0.0000000000
     40746      6357  TIP3      H1             -8.8412438384       35.9406987016      -39.2870572707  TIP3      6165            0.0000000000
     40747      6357  TIP3      H2             -7.4831402795       35.9414836336      -39.9803835365  TIP3      6165            0.0000000000
     40748      6358  TIP3      OH2            -8.4852718874       25.0319348488      -37.3564456412  TIP3      6166            0.0000000000
     40749      6358  TIP3      H1             -7.6950204630       25.6052988770      -37.3282308993  TIP3      6166            0.0000000000
     40750      6358  TIP3      H2             -8.7409830600       24.9152730504      -36.4247744775  TIP3      6166            0.0000000000
     40751      6359  TIP3      OH2            -7.9246342602       26.0563822127      -28.1797082291  TIP3      6167            0.0000000000
     40752      6359  TIP3      H1             -7.8463415578       26.6342625998      -27.3986634622  TIP3      6167            0.0000000000
     40753      6359  TIP3      H2             -7.2593697345       25.3652928489      -28.0681930087  TIP3      6167            0.0000000000
     40754      6360  TIP3      OH2            -7.6240204255       22.0943366554      -36.4694577069  TIP3      6168            0.0000000000
     40755      6360  TIP3      H1             -7.9472087646       22.7425955651      -35.8212673263  TIP3      6168            0.0000000000
     40756      6360  TIP3      H2             -6.9307216125       22.6420949168      -36.9153136731  TIP3      6168            0.0000000000
     40757      6361  TIP3      OH2           -10.6202421874      -36.5305961889      -39.3525576916  TIP3      6169            0.0000000000
     40758      6361  TIP3      H1            -10.5058936480      -35.6980743120      -39.8206660414  TIP3      6169            0.0000000000
     40759      6361  TIP3      H2            -10.8590984015      -36.2063609319      -38.4646468471  TIP3      6169            0.0000000000
     40760      6362  TIP3      OH2           -11.9620831210       23.1798340398      -39.7157361592  TIP3      6170            0.0000000000
     40761      6362  TIP3      H1            -12.0273376701       24.0982890546      -39.3836381169  TIP3      6170            0.0000000000
     40762      6362  TIP3      H2            -11.0459053324       22.9605064011      -39.4595166949  TIP3      6170            0.0000000000
     40763      6363  TIP3      OH2            -1.7438041204       23.9269606240      -27.2925582164  TIP3      6171            0.0000000000
     40764      6363  TIP3      H1             -2.6737425137       24.2320296496      -27.4314458304  TIP3      6171            0.0000000000
     40765      6363  TIP3      H2             -1.4395072110       23.9299778496      -28.2137247224  TIP3      6171            0.0000000000
     40766      6364  TIP3      OH2            -3.1306979677       27.7145281741      -33.3008000031  TIP3      6172            0.0000000000
     40767      6364  TIP3      H1             -3.9547050666       27.2690586015      -33.5751589694  TIP3      6172            0.0000000000
     40768      6364  TIP3      H2             -2.6536855008       27.0264556667      -32.7829858584  TIP3      6172            0.0000000000
     40769      6365  TIP3      OH2           -13.7081573204       33.6186262126      -40.6685759749  TIP3      6173            0.0000000000
     40770      6365  TIP3      H1            -13.0716543818       34.2924029024      -40.4258883005  TIP3      6173            0.0000000000
     40771      6365  TIP3      H2            -13.2175248289       33.2050269977      -41.4070421277  TIP3      6173            0.0000000000
     40772      6366  TIP3      OH2           -15.3409640383       26.3118523646      -41.5107087869  TIP3      6174            0.0000000000
     40773      6366  TIP3      H1            -15.3728907202       27.2772745530      -41.3962875180  TIP3      6174            0.0000000000
     40774      6366  TIP3      H2            -16.2131397117       26.1128743401      -41.8715322801  TIP3      6174            0.0000000000
     40775      6367  TIP3      OH2           -14.5718196930       21.0964230003      -32.8314440081  TIP3      6175            0.0000000000
     40776      6367  TIP3      H1            -14.7731306952       21.1173014813      -33.7934576863  TIP3      6175            0.0000000000
     40777      6367  TIP3      H2            -14.9920453103       20.2487096080      -32.5762353658  TIP3      6175            0.0000000000
     40778      6368  TIP3      OH2           -15.6029940181       35.0218691979      -36.7213310834  TIP3      6176            0.0000000000
     40779      6368  TIP3      H1            -16.4695721963       35.4505851529      -36.7151642499  TIP3      6176            0.0000000000
     40780      6368  TIP3      H2            -15.1120643555       35.5121117878      -37.3884938930  TIP3      6176            0.0000000000
     40781      6369  TIP3      OH2           -11.4403278120       36.3558792351      -23.5592009467  TIP3      6177            0.0000000000
     40782      6369  TIP3      H1            -10.6267481123       35.8625600502      -23.4064980887  TIP3      6177            0.0000000000
     40783      6369  TIP3      H2            -11.5471685667       36.1585168009      -24.5150512436  TIP3      6177            0.0000000000
     40784      6370  TIP3      OH2            -7.2682002077       36.2835238428      -41.7427096869  TIP3      6178            0.0000000000
     40785      6370  TIP3      H1             -8.0877183975       35.7685540215      -41.8773717107  TIP3      6178            0.0000000000
     40786      6370  TIP3      H2             -6.7982590744       35.7979383700      -42.4368806352  TIP3      6178            0.0000000000
     40787      6371  TIP3      OH2            -5.0852504852       34.5888663767      -25.2136130881  TIP3      6179            0.0000000000
     40788      6371  TIP3      H1             -5.6425126413       33.9835365622      -24.6799692188  TIP3      6179            0.0000000000
     40789      6371  TIP3      H2             -4.5829767886       35.0330932875      -24.5231147171  TIP3      6179            0.0000000000
     40790      6372  TIP3      OH2            -2.9800715348       35.9171099559      -42.1480395166  TIP3      6180            0.0000000000
     40791      6372  TIP3      H1             -2.8642069009       35.0622737755      -41.6760057129  TIP3      6180            0.0000000000
     40792      6372  TIP3      H2             -2.2341257361       35.8398259513      -42.7446983837  TIP3      6180            0.0000000000
     40793      6373  TIP3      OH2           -16.5127464923       31.4000144111      -24.3877566679  TIP3      6181            0.0000000000
     40794      6373  TIP3      H1            -16.3149941403       30.5311847867      -24.7632410915  TIP3      6181            0.0000000000
     40795      6373  TIP3      H2            -17.2382430167       31.7422921939      -24.9457159919  TIP3      6181            0.0000000000
     40796      6374  TIP3      OH2           -12.0630457260       31.8390723891      -42.2347889191  TIP3      6182            0.0000000000
     40797      6374  TIP3      H1            -12.0057340073       31.0039972697      -41.7699367992  TIP3      6182            0.0000000000
     40798      6374  TIP3      H2            -11.5038890426       31.6364940581      -43.0110664849  TIP3      6182            0.0000000000
     40799      6375  TIP3      OH2            -9.7858182226       31.4147801173      -25.0313141458  TIP3      6183            0.0000000000
     40800      6375  TIP3      H1            -10.1316726266       31.7236275674      -25.8853671252  TIP3      6183            0.0000000000
     40801      6375  TIP3      H2             -9.6992293856       30.4389374469      -25.1280933698  TIP3      6183            0.0000000000
     40802      6376  TIP3      OH2            -4.1007478753       31.2932242162      -27.6172481252  TIP3      6184            0.0000000000
     40803      6376  TIP3      H1             -3.3075296973       31.8710833286      -27.7125085783  TIP3      6184            0.0000000000
     40804      6376  TIP3      H2             -4.7956673928       31.9566657163      -27.5632733171  TIP3      6184            0.0000000000
     40805      6377  TIP3      OH2           -15.6563696442       28.6575116602      -25.0304837773  TIP3      6185            0.0000000000
     40806      6377  TIP3      H1            -15.1816979041       27.8178045145      -25.1317605585  TIP3      6185            0.0000000000
     40807      6377  TIP3      H2            -15.7970566452       28.6941208331      -24.0746438780  TIP3      6185            0.0000000000
     40808      6378  TIP3      OH2           -10.9388990530       29.8246655146      -39.9679649041  TIP3      6186            0.0000000000
     40809      6378  TIP3      H1            -11.4392463441       29.2902529012      -39.3304171213  TIP3      6186            0.0000000000
     40810      6378  TIP3      H2            -10.6381067620       29.1290441811      -40.6017199506  TIP3      6186            0.0000000000
     40811      6379  TIP3      OH2           -11.6817708553       27.6158512788      -27.6623982234  TIP3      6187            0.0000000000
     40812      6379  TIP3      H1            -12.2874465739       28.3293950866      -27.4042137581  TIP3      6187            0.0000000000
     40813      6379  TIP3      H2            -11.2920626340       27.9810539408      -28.4750979393  TIP3      6187            0.0000000000
     40814      6380  TIP3      OH2            -9.8668596136       28.0417498447      -41.7582446607  TIP3      6188            0.0000000000
     40815      6380  TIP3      H1             -9.9829456383       27.8445898732      -42.6977302953  TIP3      6188            0.0000000000
     40816      6380  TIP3      H2             -8.8884097790       28.1132542809      -41.6571028409  TIP3      6188            0.0000000000
     40817      6381  TIP3      OH2            -6.6257070474       30.1575318991      -24.3353070031  TIP3      6189            0.0000000000
     40818      6381  TIP3      H1             -5.6628113793       30.1862911893      -24.4390016272  TIP3      6189            0.0000000000
     40819      6381  TIP3      H2             -6.8007323878       29.4150471967      -23.7684601695  TIP3      6189            0.0000000000
     40820      6382  TIP3      OH2            -0.6780871250       30.4701584780       42.7518040668  TIP3      6190            0.0000000000
     40821      6382  TIP3      H1             -0.7837854096       29.9769539229       41.9226068054  TIP3      6190            0.0000000000
     40822      6382  TIP3      H2             -0.4749222458       31.3731315823       42.4742357042  TIP3      6190            0.0000000000
     40823      6383  TIP3      OH2           -11.2623716291       24.9954818574      -26.5899964555  TIP3      6191            0.0000000000
     40824      6383  TIP3      H1            -11.1705501811       24.2807457350      -27.2452011038  TIP3      6191            0.0000000000
     40825      6383  TIP3      H2            -11.3203089488       25.7984871380      -27.1489734623  TIP3      6191            0.0000000000
     40826      6384  TIP3      OH2           -10.8760200578       23.3716654414      -29.0562377615  TIP3      6192            0.0000000000
     40827      6384  TIP3      H1            -10.3644317659       23.8362368335      -29.7605880628  TIP3      6192            0.0000000000
     40828      6384  TIP3      H2            -11.7672603942       23.2899835543      -29.4668057637  TIP3      6192            0.0000000000
     40829      6385  TIP3      OH2            -9.3295488300       28.8554518323      -28.8025180323  TIP3      6193            0.0000000000
     40830      6385  TIP3      H1             -8.5815865296       28.6892709066      -29.3860313163  TIP3      6193            0.0000000000
     40831      6385  TIP3      H2             -9.6944394147       29.6897780019      -29.1409586561  TIP3      6193            0.0000000000
     40832      6386  TIP3      OH2            -3.6039879772       29.4209450571      -25.6933640997  TIP3      6194            0.0000000000
     40833      6386  TIP3      H1             -3.8408446699       30.1362206412      -26.3252013763  TIP3      6194            0.0000000000
     40834      6386  TIP3      H2             -2.6428258882       29.3950917598      -25.9018839437  TIP3      6194            0.0000000000
     40835      6387  TIP3      OH2           -12.8478306324       26.2444522327      -24.7067219030  TIP3      6195            0.0000000000
     40836      6387  TIP3      H1            -13.5999494593       25.6393429162      -24.8610697219  TIP3      6195            0.0000000000
     40837      6387  TIP3      H2            -12.1807265132       25.8753432751      -25.3147739195  TIP3      6195            0.0000000000
     40838      6388  TIP3      OH2           -10.0864990588       20.8083766460      -28.6581906582  TIP3      6196            0.0000000000
     40839      6388  TIP3      H1            -10.2583415935       21.7719844643      -28.7605704414  TIP3      6196            0.0000000000
     40840      6388  TIP3      H2            -10.8361902216       20.4457355204      -29.1620328700  TIP3      6196            0.0000000000
     40841      6389  TIP3      OH2            -8.8136175661       25.1300891824      -25.0508556400  TIP3      6197            0.0000000000
     40842      6389  TIP3      H1             -9.1397237872       24.9127440577      -24.1600713118  TIP3      6197            0.0000000000
     40843      6389  TIP3      H2             -9.6132353321       24.9382733884      -25.5871029121  TIP3      6197            0.0000000000
     40844      6390  TIP3      OH2            -6.1062292326       24.2708676084      -25.9766063900  TIP3      6198            0.0000000000
     40845      6390  TIP3      H1             -7.0670655028       24.3171858793      -25.8407570601  TIP3      6198            0.0000000000
     40846      6390  TIP3      H2             -5.8131848825       23.6472975677      -25.2835939593  TIP3      6198            0.0000000000
     40847      6391  TIP3      OH2            -4.5547476668       22.9251305472      -24.0005706165  TIP3      6199            0.0000000000
     40848      6391  TIP3      H1             -4.5747021663       21.9430151644      -24.0118265700  TIP3      6199            0.0000000000
     40849      6391  TIP3      H2             -4.7807061186       23.1450083895      -23.0885025243  TIP3      6199            0.0000000000
     40850      6392  TIP3      OH2           -14.6836439489       24.1658272133      -24.9428026229  TIP3      6200            0.0000000000
     40851      6392  TIP3      H1            -14.4843307486       23.4149772787      -25.5325023385  TIP3      6200            0.0000000000
     40852      6392  TIP3      H2            -14.8267203498       23.6995029272      -24.0908861164  TIP3      6200            0.0000000000
     40853      6393  TIP3      OH2            -9.8836669096       20.1884263524      -25.9663281127  TIP3      6201            0.0000000000
     40854      6393  TIP3      H1             -9.2040972903       19.4828904969      -25.9818126361  TIP3      6201            0.0000000000
     40855      6393  TIP3      H2             -9.9859170661       20.3461677023      -26.9214413256  TIP3      6201            0.0000000000
     40856      6394  TIP3      OH2            -9.5258826855       21.8179094984      -23.8683344919  TIP3      6202            0.0000000000
     40857      6394  TIP3      H1             -9.6735495001       21.2998249599      -24.6943193162  TIP3      6202            0.0000000000
     40858      6394  TIP3      H2            -10.1208170541       22.5777355856      -23.9630098342  TIP3      6202            0.0000000000
     40859      6395  TIP3      OH2           -16.4462743326       33.2975242368      -41.2087579649  TIP3      6203            0.0000000000
     40860      6395  TIP3      H1            -15.4971264713       33.4358104306      -40.9901277681  TIP3      6203            0.0000000000
     40861      6395  TIP3      H2            -16.4018099409       32.7075531799      -41.9639427302  TIP3      6203            0.0000000000
     40862      6396  TIP3      OH2            -1.3776815133       32.9553764412      -23.7735378278  TIP3      6204            0.0000000000
     40863      6396  TIP3      H1             -2.2526984226       32.8888724774      -23.4021071597  TIP3      6204            0.0000000000
     40864      6396  TIP3      H2             -0.9170028753       33.7127540367      -23.3647228172  TIP3      6204            0.0000000000
     40865      6397  TIP3      OH2             0.0033312752       31.2308393811      -38.3955255820  TIP3      6205            0.0000000000
     40866      6397  TIP3      H1              0.8328615753       31.6779791029      -38.1683445094  TIP3      6205            0.0000000000
     40867      6397  TIP3      H2             -0.0255759765       30.5342480697      -37.7040359367  TIP3      6205            0.0000000000
     40868      6398  TIP3      OH2             0.3461191767       29.3383215707      -36.5028906581  TIP3      6206            0.0000000000
     40869      6398  TIP3      H1             -0.3991693248       28.8230541061      -36.1173897411  TIP3      6206            0.0000000000
     40870      6398  TIP3      H2              0.9485412931       29.4667219115      -35.7409068114  TIP3      6206            0.0000000000
     40871      6399  TIP3      OH2             0.0574352998       32.0419328028      -31.5721837191  TIP3      6207            0.0000000000
     40872      6399  TIP3      H1              0.9082803045       31.6625210107      -31.8643789217  TIP3      6207            0.0000000000
     40873      6399  TIP3      H2              0.2661229106       32.9935475567      -31.6405900088  TIP3      6207            0.0000000000
     40874      6400  TIP3      OH2            -1.3887569626       34.9255188645      -29.1970214223  TIP3      6208            0.0000000000
     40875      6400  TIP3      H1             -2.0864685415       35.2931175198      -28.6539299728  TIP3      6208            0.0000000000
     40876      6400  TIP3      H2             -1.8826756806       34.5416738804      -29.9551587731  TIP3      6208            0.0000000000
     40877      6401  TIP3      OH2             0.6402910880       29.1590984657      -40.1337937456  TIP3      6209            0.0000000000
     40878      6401  TIP3      H1              0.0547988178       29.5384805129      -40.8151476593  TIP3      6209            0.0000000000
     40879      6401  TIP3      H2              0.5731910827       29.8584502984      -39.4511023524  TIP3      6209            0.0000000000
     40880      6402  TIP3      OH2            -1.3484400836       26.4248976847      -41.4975691241  TIP3      6210            0.0000000000
     40881      6402  TIP3      H1             -0.9115911027       27.0168732115      -42.1309579978  TIP3      6210            0.0000000000
     40882      6402  TIP3      H2             -1.1756930882       25.5830403581      -41.9620506777  TIP3      6210            0.0000000000
     40883      6403  TIP3      OH2            -1.8309961067       27.8130227404      -35.9321312583  TIP3      6211            0.0000000000
     40884      6403  TIP3      H1             -1.9832336773       26.8567259728      -35.9707333323  TIP3      6211            0.0000000000
     40885      6403  TIP3      H2             -2.1649788947       28.0334242834      -35.0435341425  TIP3      6211            0.0000000000
     40886      6404  TIP3      OH2           -16.8278717005       29.8996209562      -31.8760889318  TIP3      6212            0.0000000000
     40887      6404  TIP3      H1            -16.6450141888       29.8148789955      -32.8381684159  TIP3      6212            0.0000000000
     40888      6404  TIP3      H2            -15.9353009791       29.7274830745      -31.5179917754  TIP3      6212            0.0000000000
     40889      6405  TIP3      OH2            -0.9861756553       29.7702388006      -26.1854048429  TIP3      6213            0.0000000000
     40890      6405  TIP3      H1             -0.3377060031       29.0387600316      -26.1074830664  TIP3      6213            0.0000000000
     40891      6405  TIP3      H2             -0.3928943486       30.5446124175      -26.2717412741  TIP3      6213            0.0000000000
     40892      6406  TIP3      OH2             0.5021020133       27.6507183007      -25.5408316920  TIP3      6214            0.0000000000
     40893      6406  TIP3      H1             -0.3667673286       27.2584496577      -25.7699778280  TIP3      6214            0.0000000000
     40894      6406  TIP3      H2              1.0971271666       26.8967537970      -25.6814772751  TIP3      6214            0.0000000000
     40895      6407  TIP3      OH2            -1.7304736853       23.8081761804      -42.4906978779  TIP3      6215            0.0000000000
     40896      6407  TIP3      H1             -1.1505975077       23.4023435001      -41.8155510110  TIP3      6215            0.0000000000
     40897      6407  TIP3      H2             -2.6171596741       23.4688006275      -42.2778995498  TIP3      6215            0.0000000000
     40898      6408  TIP3      OH2            -2.1628718606       25.3978321459      -37.4573884677  TIP3      6216            0.0000000000
     40899      6408  TIP3      H1             -1.8567214951       24.4681638613      -37.3482366625  TIP3      6216            0.0000000000
     40900      6408  TIP3      H2             -1.3835382500       25.8010472398      -37.8627057977  TIP3      6216            0.0000000000
     40901      6409  TIP3      OH2            -1.5269603168       25.9399316935      -32.0331484111  TIP3      6217            0.0000000000
     40902      6409  TIP3      H1             -0.5674311205       26.1745268102      -32.0466650308  TIP3      6217            0.0000000000
     40903      6409  TIP3      H2             -1.7172909606       26.0825185194      -31.0928246345  TIP3      6217            0.0000000000
     40904      6410  TIP3      OH2            -1.4720343814       26.6529778055      -29.2695725374  TIP3      6218            0.0000000000
     40905      6410  TIP3      H1             -2.3324202523       26.9526011160      -28.9059223604  TIP3      6218            0.0000000000
     40906      6410  TIP3      H2             -1.0298438167       27.5183233682      -29.4705413195  TIP3      6218            0.0000000000
     40907      6411  TIP3      OH2           -17.1995358987       25.1940464831      -25.7378679858  TIP3      6219            0.0000000000
     40908      6411  TIP3      H1            -16.2758274148       24.9758799096      -25.5258407698  TIP3      6219            0.0000000000
     40909      6411  TIP3      H2            -17.6666056360       24.3747223474      -25.4326272167  TIP3      6219            0.0000000000
     40910      6412  TIP3      OH2             0.8327611700       20.6401078329      -23.8942506854  TIP3      6220            0.0000000000
     40911      6412  TIP3      H1              1.1476910783       20.0341922784      -24.5741899577  TIP3      6220            0.0000000000
     40912      6412  TIP3      H2              0.8891632016       21.5118974786      -24.3507015347  TIP3      6220            0.0000000000
     40913      6413  TIP3      OH2            -1.4949681851       22.6707116018      -37.4299863949  TIP3      6221            0.0000000000
     40914      6413  TIP3      H1             -1.2874487454       22.2348298001      -36.5750823339  TIP3      6221            0.0000000000
     40915      6413  TIP3      H2             -2.1036948373       22.0432648265      -37.8737887154  TIP3      6221            0.0000000000
     40916      6414  TIP3      OH2           -16.0095451459       23.4874411103      -32.8724373129  TIP3      6222            0.0000000000
     40917      6414  TIP3      H1            -15.5474761806       22.6642385244      -32.6099432289  TIP3      6222            0.0000000000
     40918      6414  TIP3      H2            -15.4666646874       24.1812878159      -32.4767089165  TIP3      6222            0.0000000000
     40919      6415  TIP3      OH2           -17.7257728956       26.4866001242      -31.8306891289  TIP3      6223            0.0000000000
     40920      6415  TIP3      H1            -17.1634822938       26.2450543298      -32.5951849651  TIP3      6223            0.0000000000
     40921      6415  TIP3      H2            -17.2669799719       27.2930559615      -31.5531776397  TIP3      6223            0.0000000000
     40922      6416  TIP3      OH2             0.3489726622       22.7861643500      -25.5305216440  TIP3      6224            0.0000000000
     40923      6416  TIP3      H1             -0.5771349797       23.0972245219      -25.6070457446  TIP3      6224            0.0000000000
     40924      6416  TIP3      H2              0.3971319457       22.2873396831      -26.3546652891  TIP3      6224            0.0000000000
     40925      6417  TIP3      OH2             0.3210330266       22.7383466578      -40.8669005282  TIP3      6225            0.0000000000
     40926      6417  TIP3      H1              0.7532055595       22.0261814760      -41.3666368223  TIP3      6225            0.0000000000
     40927      6417  TIP3      H2              1.0450618088       23.3885837133      -40.8463240457  TIP3      6225            0.0000000000
     40928      6418  TIP3      OH2           -17.3636023183       22.7432696273      -37.7701824802  TIP3      6226            0.0000000000
     40929      6418  TIP3      H1            -18.3050063898       22.9378268087      -37.8912371024  TIP3      6226            0.0000000000
     40930      6418  TIP3      H2            -16.9442275840       23.2431732754      -38.4921169104  TIP3      6226            0.0000000000
     40931      6419  TIP3      OH2           -17.4025735104       21.4179247822      -29.4544273787  TIP3      6227            0.0000000000
     40932      6419  TIP3      H1            -18.0713835868       21.2166862702      -28.7707030509  TIP3      6227            0.0000000000
     40933      6419  TIP3      H2            -17.8711955850       22.0824266995      -29.9955132171  TIP3      6227            0.0000000000
     40934      6420  TIP3      OH2           -15.1812901583       34.6817904989      -25.2943987229  TIP3      6228            0.0000000000
     40935      6420  TIP3      H1            -16.0462600217       34.7857449218      -25.7332862964  TIP3      6228            0.0000000000
     40936      6420  TIP3      H2            -15.4381206600       34.5083689852      -24.3739675879  TIP3      6228            0.0000000000
     40937      6421  TIP3      OH2           -12.2406587020       35.5990596376      -28.9722397306  TIP3      6229            0.0000000000
     40938      6421  TIP3      H1            -12.6879852252       36.3913939749      -29.3046432066  TIP3      6229            0.0000000000
     40939      6421  TIP3      H2            -11.3687350654       35.6124056460      -29.3743317439  TIP3      6229            0.0000000000
     40940      6422  TIP3      OH2            -0.6402411174       20.9171405499      -27.7224776622  TIP3      6230            0.0000000000
     40941      6422  TIP3      H1             -1.4817316622       21.2052633546      -28.1176338110  TIP3      6230            0.0000000000
     40942      6422  TIP3      H2             -0.4801492422       20.0877683647      -28.2264254639  TIP3      6230            0.0000000000
     40943      6423  TIP3      OH2           -13.0652635618       35.9562399126      -33.6504919347  TIP3      6231            0.0000000000
     40944      6423  TIP3      H1            -13.4657653809       35.2002331039      -33.1935231316  TIP3      6231            0.0000000000
     40945      6423  TIP3      H2            -12.5087679862       36.3285678685      -32.9496959150  TIP3      6231            0.0000000000
     40946      6424  TIP3      OH2            -7.2575025272       22.3435196206      -33.4177892455  TIP3      6232            0.0000000000
     40947      6424  TIP3      H1             -7.9321414067       21.7007446218      -33.1406450826  TIP3      6232            0.0000000000
     40948      6424  TIP3      H2             -6.7039469351       21.8117007986      -34.0017690433  TIP3      6232            0.0000000000
     40949      6425  TIP3      OH2            -2.1213521988       20.3959846907      -33.3475386649  TIP3      6233            0.0000000000
     40950      6425  TIP3      H1             -1.5072256705       20.9846626277      -33.8552299401  TIP3      6233            0.0000000000
     40951      6425  TIP3      H2             -3.0029351245       20.7535048120      -33.5800901842  TIP3      6233            0.0000000000
     40952      6426  TIP3      OH2            -0.4493898263       21.6315207027      -35.0647016192  TIP3      6234            0.0000000000
     40953      6426  TIP3      H1              0.2361240162       21.0604732149      -35.4882963295  TIP3      6234            0.0000000000
     40954      6426  TIP3      H2              0.0502365787       22.4740443009      -34.9669605291  TIP3      6234            0.0000000000
     40955      6427  TIP3      OH2           -14.8893849733       20.9680279310      -35.5658928316  TIP3      6235            0.0000000000
     40956      6427  TIP3      H1            -15.6838645038       20.7660869555      -36.0977966426  TIP3      6235            0.0000000000
     40957      6427  TIP3      H2            -14.4232435654       20.1127508450      -35.6232183215  TIP3      6235            0.0000000000
     40958      6428  TIP3      OH2           -16.1394800453       20.7235728000      -39.8429282876  TIP3      6236            0.0000000000
     40959      6428  TIP3      H1            -15.6359245718       21.3638220308      -40.3893101566  TIP3      6236            0.0000000000
     40960      6428  TIP3      H2            -16.6879754398       21.3050829190      -39.2932459701  TIP3      6236            0.0000000000
     40961      6429  TIP3      OH2           -10.4086524193       20.8922183472      -35.7832823127  TIP3      6237            0.0000000000
     40962      6429  TIP3      H1             -9.5098141457       21.2562127885      -35.8481902281  TIP3      6237            0.0000000000
     40963      6429  TIP3      H2            -10.4518912905       20.6761612723      -34.8530268998  TIP3      6237            0.0000000000
     40964      6430  TIP3      OH2            -4.7103032527       20.9128201031      -34.1538734528  TIP3      6238            0.0000000000
     40965      6430  TIP3      H1             -4.7462290453       21.0243034417      -35.1112985507  TIP3      6238            0.0000000000
     40966      6430  TIP3      H2             -5.0812345398       20.0042953939      -34.0327261860  TIP3      6238            0.0000000000
     40967      6431  TIP3      OH2            -3.4322737299       20.9375573222      -38.4958691631  TIP3      6239            0.0000000000
     40968      6431  TIP3      H1             -4.1730793174       21.5407473826      -38.6537167913  TIP3      6239            0.0000000000
     40969      6431  TIP3      H2             -3.8775119616       20.0846420260      -38.2770048282  TIP3      6239            0.0000000000
     40970      6432  TIP3      OH2           -14.2905263604       22.5893841833      -41.3098424392  TIP3      6240            0.0000000000
     40971      6432  TIP3      H1            -13.7441185705       22.0378859992      -41.8666379926  TIP3      6240            0.0000000000
     40972      6432  TIP3      H2            -13.6299575672       23.0025694375      -40.7241540654  TIP3      6240            0.0000000000
     40973      6433  TIP3      OH2            -9.2555094086       22.9156367327      -38.9296539191  TIP3      6241            0.0000000000
     40974      6433  TIP3      H1             -9.0007674390       22.3357506940      -38.1942332526  TIP3      6241            0.0000000000
     40975      6433  TIP3      H2             -9.1990507729       23.7788291213      -38.4572307687  TIP3      6241            0.0000000000
     40976      6434  TIP3      OH2           -14.9773007009       21.4979666540      -26.1498239588  TIP3      6242            0.0000000000
     40977      6434  TIP3      H1            -15.4098013928       20.7536123955      -25.6758291045  TIP3      6242            0.0000000000
     40978      6434  TIP3      H2            -14.0946160661       21.4663265658      -25.7183772267  TIP3      6242            0.0000000000
     40979      6435  TIP3      OH2           -12.9830687434       20.8888550760      -24.5038818454  TIP3      6243            0.0000000000
     40980      6435  TIP3      H1            -12.1078155717       20.5240099455      -24.7214634794  TIP3      6243            0.0000000000
     40981      6435  TIP3      H2            -13.3828583116       20.1149719281      -24.0825401909  TIP3      6243            0.0000000000
     40982      6436  TIP3      OH2            -4.5839133890       20.1694701372      -24.3634041920  TIP3      6244            0.0000000000
     40983      6436  TIP3      H1             -4.5336625411       19.7579981112      -23.4775544430  TIP3      6244            0.0000000000
     40984      6436  TIP3      H2             -3.6598900477       20.1600003525      -24.6679886902  TIP3      6244            0.0000000000
     40985      6437  TIP3      OH2            -1.5150715164      -36.8352129532      -25.5357009241  TIP3      6245            0.0000000000
     40986      6437  TIP3      H1             -2.1836929234      -36.9631506672      -26.2146262558  TIP3      6245            0.0000000000
     40987      6437  TIP3      H2             -1.4211225255      -35.8666486235      -25.5200804483  TIP3      6245            0.0000000000
     40988      6438  TIP3      OH2            13.0224313739       30.0653820088      -35.6450255547  TIP3      6246            0.0000000000
     40989      6438  TIP3      H1             13.0556063278       31.0553685741      -35.7517292196  TIP3      6246            0.0000000000
     40990      6438  TIP3      H2             12.3446719449       29.8651395282      -36.3221272786  TIP3      6246            0.0000000000
     40991      6439  TIP3      OH2            11.8958362145       29.3538682827      -32.2025732978  TIP3      6247            0.0000000000
     40992      6439  TIP3      H1             11.8070608139       28.7464128804      -31.4433974220  TIP3      6247            0.0000000000
     40993      6439  TIP3      H2             11.3966042237       28.9024339655      -32.9178275346  TIP3      6247            0.0000000000
     40994      6440  TIP3      OH2             4.3323371831       28.9606465623      -30.7414235481  TIP3      6248            0.0000000000
     40995      6440  TIP3      H1              4.3295866387       28.3769539193      -29.9560474190  TIP3      6248            0.0000000000
     40996      6440  TIP3      H2              4.9588211452       29.6354414760      -30.4186100242  TIP3      6248            0.0000000000
     40997      6441  TIP3      OH2            15.5931665593       32.2886009115      -33.9186531762  TIP3      6249            0.0000000000
     40998      6441  TIP3      H1             15.1859471782       31.5977181249      -33.4064412249  TIP3      6249            0.0000000000
     40999      6441  TIP3      H2             15.6440859020       33.0252994224      -33.2789490161  TIP3      6249            0.0000000000
     41000      6442  TIP3      OH2             5.2163260467       33.5007001044      -32.1533050375  TIP3      6250            0.0000000000
     41001      6442  TIP3      H1              4.8706908022       32.6362787167      -32.4599168395  TIP3      6250            0.0000000000
     41002      6442  TIP3      H2              6.1629810404       33.2886836788      -32.1058257004  TIP3      6250            0.0000000000
     41003      6443  TIP3      OH2             1.8351874968       27.0469803701      -36.6715944769  TIP3      6251            0.0000000000
     41004      6443  TIP3      H1              1.3962774178       27.9175055928      -36.7245421331  TIP3      6251            0.0000000000
     41005      6443  TIP3      H2              1.2687643101       26.5102621071      -37.2428114703  TIP3      6251            0.0000000000
     41006      6444  TIP3      OH2             2.5414369237       29.2685896718      -34.5270252452  TIP3      6252            0.0000000000
     41007      6444  TIP3      H1              2.8103345168       28.4520933312      -34.0644333665  TIP3      6252            0.0000000000
     41008      6444  TIP3      H2              3.2452509853       29.3707226857      -35.1856446718  TIP3      6252            0.0000000000
     41009      6445  TIP3      OH2            10.2760611716       31.7408083765      -31.7339530346  TIP3      6253            0.0000000000
     41010      6445  TIP3      H1             10.6207294737       31.1431465201      -32.4061757506  TIP3      6253            0.0000000000
     41011      6445  TIP3      H2             11.0760551839       31.9527243584      -31.2215482274  TIP3      6253            0.0000000000
     41012      6446  TIP3      OH2            18.8905774351       23.4276171584      -31.0175983657  TIP3      6254            0.0000000000
     41013      6446  TIP3      H1             19.0632372038       24.0074361427      -30.2435635967  TIP3      6254            0.0000000000
     41014      6446  TIP3      H2             19.4567954504       23.8502864585      -31.6773120628  TIP3      6254            0.0000000000
     41015      6447  TIP3      OH2            13.4818525904       26.2604235931      -31.4675225343  TIP3      6255            0.0000000000
     41016      6447  TIP3      H1             13.6182453612       25.2897694529      -31.3860328366  TIP3      6255            0.0000000000
     41017      6447  TIP3      H2             13.3294436172       26.2833488720      -32.4181066014  TIP3      6255            0.0000000000
     41018      6448  TIP3      OH2             6.5736690609       24.3200175714      -34.2077169148  TIP3      6256            0.0000000000
     41019      6448  TIP3      H1              6.6694995890       25.1623267705      -34.6896302458  TIP3      6256            0.0000000000
     41020      6448  TIP3      H2              6.1693326093       23.7476036878      -34.8961293276  TIP3      6256            0.0000000000
     41021      6449  TIP3      OH2            14.3043541108       24.4400717774      -35.8133941953  TIP3      6257            0.0000000000
     41022      6449  TIP3      H1             14.9678712037       24.0711769908      -35.1833862951  TIP3      6257            0.0000000000
     41023      6449  TIP3      H2             14.8796294556       24.9547800276      -36.4022478864  TIP3      6257            0.0000000000
     41024      6450  TIP3      OH2             3.1965517009       26.7266211496      -33.4743582901  TIP3      6258            0.0000000000
     41025      6450  TIP3      H1              3.8687053865       26.1766893496      -33.0287970697  TIP3      6258            0.0000000000
     41026      6450  TIP3      H2              3.2950160819       26.4174316449      -34.3871568772  TIP3      6258            0.0000000000
     41027      6451  TIP3      OH2             8.3809653508       28.2859542376      -34.1755292158  TIP3      6259            0.0000000000
     41028      6451  TIP3      H1              9.0056233351       27.6846310821      -33.7498433757  TIP3      6259            0.0000000000
     41029      6451  TIP3      H2              7.8257344896       27.6388214380      -34.6611332047  TIP3      6259            0.0000000000
     41030      6452  TIP3      OH2            19.3358807185       24.8339401480      -28.7410195570  TIP3      6260            0.0000000000
     41031      6452  TIP3      H1             18.7110606423       25.5835317349      -28.8428763981  TIP3      6260            0.0000000000
     41032      6452  TIP3      H2             19.3685165558       24.7376469051      -27.7813788467  TIP3      6260            0.0000000000
     41033      6453  TIP3      OH2             5.4720105327       23.2193532269      -30.1653399064  TIP3      6261            0.0000000000
     41034      6453  TIP3      H1              5.1966942180       23.7883411322      -30.9146220434  TIP3      6261            0.0000000000
     41035      6453  TIP3      H2              4.7978942323       23.4595539162      -29.4841616192  TIP3      6261            0.0000000000
     41036      6454  TIP3      OH2            12.7459708995       32.6520552580      -36.6104276840  TIP3      6262            0.0000000000
     41037      6454  TIP3      H1             12.5116989558       32.4418565049      -37.5259833458  TIP3      6262            0.0000000000
     41038      6454  TIP3      H2             12.4738537531       33.5944625061      -36.5591729692  TIP3      6262            0.0000000000
     41039      6455  TIP3      OH2             7.9988600672       30.8464669119      -29.9204954555  TIP3      6263            0.0000000000
     41040      6455  TIP3      H1              7.2771050331       31.4764589043      -29.7004147524  TIP3      6263            0.0000000000
     41041      6455  TIP3      H2              8.6925250185       31.4543868680      -30.2083229749  TIP3      6263            0.0000000000
     41042      6456  TIP3      OH2            16.0859626488       23.7778515554      -33.8198951388  TIP3      6264            0.0000000000
     41043      6456  TIP3      H1             15.8983103246       22.9778173046      -33.3190874921  TIP3      6264            0.0000000000
     41044      6456  TIP3      H2             16.8036501043       24.1649536656      -33.2927941542  TIP3      6264            0.0000000000
     41045      6457  TIP3      OH2             5.0506942202       25.0896908747      -32.1390225634  TIP3      6265            0.0000000000
     41046      6457  TIP3      H1              5.6834129373       25.7696960598      -31.8210788745  TIP3      6265            0.0000000000
     41047      6457  TIP3      H2              5.5641084134       24.6651046888      -32.8703186711  TIP3      6265            0.0000000000
     41048      6458  TIP3      OH2             6.4319582822       32.8662311426      -29.1036554709  TIP3      6266            0.0000000000
     41049      6458  TIP3      H1              6.3619366628       33.7635324150      -29.4577384620  TIP3      6266            0.0000000000
     41050      6458  TIP3      H2              5.5446494845       32.7528833278      -28.6830631378  TIP3      6266            0.0000000000
     41051      6459  TIP3      OH2             2.4979329969       32.5239901921      -38.3040100995  TIP3      6267            0.0000000000
     41052      6459  TIP3      H1              2.2796435065       32.8209281177      -39.2013556888  TIP3      6267            0.0000000000
     41053      6459  TIP3      H2              2.5835076180       33.3530250784      -37.7899530833  TIP3      6267            0.0000000000
     41054      6460  TIP3      OH2            16.1446576620       34.1723627399      -31.5063654325  TIP3      6268            0.0000000000
     41055      6460  TIP3      H1             15.1628811457       34.2456869899      -31.4223013892  TIP3      6268            0.0000000000
     41056      6460  TIP3      H2             16.4216374220       35.0667697612      -31.7710186641  TIP3      6268            0.0000000000
     41057      6461  TIP3      OH2            16.4466375697       22.4310704685      -30.1721197866  TIP3      6269            0.0000000000
     41058      6461  TIP3      H1             15.7256980034       23.0690576536      -30.2602108485  TIP3      6269            0.0000000000
     41059      6461  TIP3      H2             17.1644772961       22.8492552456      -30.6854621898  TIP3      6269            0.0000000000
     41060      6462  TIP3      OH2             9.4234576167       20.5509762422      -32.7046433357  TIP3      6270            0.0000000000
     41061      6462  TIP3      H1              9.2833800995       19.5863616221      -32.7749993840  TIP3      6270            0.0000000000
     41062      6462  TIP3      H2              8.5455273503       20.8574537719      -32.3999845279  TIP3      6270            0.0000000000
     41063      6463  TIP3      OH2            14.4117338847       35.6298356422      -35.1384541455  TIP3      6271            0.0000000000
     41064      6463  TIP3      H1             14.9853612451       35.0271441097      -35.6462100855  TIP3      6271            0.0000000000
     41065      6463  TIP3      H2             14.7999952612       36.4707876794      -35.3828820589  TIP3      6271            0.0000000000
     41066      6464  TIP3      OH2            15.6268982383       33.7873549319      -36.4886990356  TIP3      6272            0.0000000000
     41067      6464  TIP3      H1             15.2891789946       33.1094089701      -37.0844650532  TIP3      6272            0.0000000000
     41068      6464  TIP3      H2             15.6406550444       33.3452234358      -35.6178034122  TIP3      6272            0.0000000000
     41069      6465  TIP3      OH2            17.2231601809       32.4811029206      -27.9517199365  TIP3      6273            0.0000000000
     41070      6465  TIP3      H1             17.3483909343       31.8088895312      -28.6571263051  TIP3      6273            0.0000000000
     41071      6465  TIP3      H2             17.4471911448       33.3135053195      -28.4028770549  TIP3      6273            0.0000000000
     41072      6466  TIP3      OH2            11.7202388411       29.3607394968      -38.1871548554  TIP3      6274            0.0000000000
     41073      6466  TIP3      H1             11.0147842481       29.9155128547      -38.5755612102  TIP3      6274            0.0000000000
     41074      6466  TIP3      H2             12.4113454285       29.4335332981      -38.8714956993  TIP3      6274            0.0000000000
     41075      6467  TIP3      OH2            11.7518576724       27.8737302080      -41.1094332726  TIP3      6275            0.0000000000
     41076      6467  TIP3      H1             12.4924211646       27.8766404231      -40.4857893402  TIP3      6275            0.0000000000
     41077      6467  TIP3      H2             12.0809596818       27.2418639629      -41.7583771373  TIP3      6275            0.0000000000
     41078      6468  TIP3      OH2            19.1048868018       28.7624163996      -29.9107454368  TIP3      6276            0.0000000000
     41079      6468  TIP3      H1             18.4431260495       29.4820453856      -29.8716912804  TIP3      6276            0.0000000000
     41080      6468  TIP3      H2             19.5927410618       28.9951806928      -30.7231261584  TIP3      6276            0.0000000000
     41081      6469  TIP3      OH2            15.1422494725       29.5691052167      -37.2441990881  TIP3      6277            0.0000000000
     41082      6469  TIP3      H1             14.3929765933       29.7976535761      -36.6532815935  TIP3      6277            0.0000000000
     41083      6469  TIP3      H2             15.6395347235       28.8812344665      -36.7685515673  TIP3      6277            0.0000000000
     41084      6470  TIP3      OH2            15.0905285030       27.7230655413      -28.1630456278  TIP3      6278            0.0000000000
     41085      6470  TIP3      H1             15.1038097173       28.5177350991      -27.5973694768  TIP3      6278            0.0000000000
     41086      6470  TIP3      H2             14.4446813584       28.0300325861      -28.8225549061  TIP3      6278            0.0000000000
     41087      6471  TIP3      OH2             6.7740121312       30.2170739381      -35.3539942181  TIP3      6279            0.0000000000
     41088      6471  TIP3      H1              6.4422403129       29.8193179062      -36.1915474354  TIP3      6279            0.0000000000
     41089      6471  TIP3      H2              7.3885319682       29.5240511637      -35.0218217420  TIP3      6279            0.0000000000
     41090      6472  TIP3      OH2             8.1019286635       33.6204485567      -32.6863525131  TIP3      6280            0.0000000000
     41091      6472  TIP3      H1              8.0913755391       33.0681356111      -33.4758840477  TIP3      6280            0.0000000000
     41092      6472  TIP3      H2              8.8669516573       33.2505416649      -32.2080971230  TIP3      6280            0.0000000000
     41093      6473  TIP3      OH2             7.1240912419       28.9431932541      -31.7105463399  TIP3      6281            0.0000000000
     41094      6473  TIP3      H1              7.6564540452       29.0747582391      -32.5114815529  TIP3      6281            0.0000000000
     41095      6473  TIP3      H2              7.4828403960       29.6150905904      -31.0891058587  TIP3      6281            0.0000000000
     41096      6474  TIP3      OH2            13.5454187702       34.5271055471      -30.9647146333  TIP3      6282            0.0000000000
     41097      6474  TIP3      H1             13.1844603009       35.1617443451      -30.3562866746  TIP3      6282            0.0000000000
     41098      6474  TIP3      H2             13.2478737734       33.6769954925      -30.5616354360  TIP3      6282            0.0000000000
     41099      6475  TIP3      OH2             8.0674534263       33.4047569826      -26.9860776414  TIP3      6283            0.0000000000
     41100      6475  TIP3      H1              7.6093904878       34.1359893004      -26.5218062573  TIP3      6283            0.0000000000
     41101      6475  TIP3      H2              7.3983562019       33.1638856309      -27.6802570299  TIP3      6283            0.0000000000
     41102      6476  TIP3      OH2            14.0346368757       28.7260107470      -39.5991415160  TIP3      6284            0.0000000000
     41103      6476  TIP3      H1             14.5891121230       28.9279542871      -38.8106520319  TIP3      6284            0.0000000000
     41104      6476  TIP3      H2             14.4380349619       29.2683124779      -40.3043928917  TIP3      6284            0.0000000000
     41105      6477  TIP3      OH2             5.3081808805       28.8882483240      -27.4696291270  TIP3      6285            0.0000000000
     41106      6477  TIP3      H1              5.2268002271       29.8348795668      -27.1810154503  TIP3      6285            0.0000000000
     41107      6477  TIP3      H2              4.5133972551       29.1225313057      -28.0094797184  TIP3      6285            0.0000000000
     41108      6478  TIP3      OH2            11.7073454650       35.4483991043      -36.1144696787  TIP3      6286            0.0000000000
     41109      6478  TIP3      H1             12.2031024377       35.7754721402      -35.3577373937  TIP3      6286            0.0000000000
     41110      6478  TIP3      H2             11.1992303055       36.2148765695      -36.3964444331  TIP3      6286            0.0000000000
     41111      6479  TIP3      OH2             6.3043278492       35.3670746912      -26.2530654177  TIP3      6287            0.0000000000
     41112      6479  TIP3      H1              6.2259113397       35.3209291676      -27.2294233012  TIP3      6287            0.0000000000
     41113      6479  TIP3      H2              5.3563869236       35.2730041406      -26.0106278859  TIP3      6287            0.0000000000
     41114      6480  TIP3      OH2            17.7447036856       20.4825154084      -39.7176624976  TIP3      6288            0.0000000000
     41115      6480  TIP3      H1             16.7986587687       20.6025631298      -39.4632473703  TIP3      6288            0.0000000000
     41116      6480  TIP3      H2             17.9691383769       21.3378043471      -40.1209075443  TIP3      6288            0.0000000000
     41117      6481  TIP3      OH2             5.7373353717       29.2440047046      -37.7423749631  TIP3      6289            0.0000000000
     41118      6481  TIP3      H1              5.4621132718       30.0186173947      -38.2711982323  TIP3      6289            0.0000000000
     41119      6481  TIP3      H2              5.0871063756       28.5773688228      -37.9747376480  TIP3      6289            0.0000000000
     41120      6482  TIP3      OH2            18.8923286970       34.7917253019      -41.3183368343  TIP3      6290            0.0000000000
     41121      6482  TIP3      H1             18.9496455663       35.7516915126      -41.1918628140  TIP3      6290            0.0000000000
     41122      6482  TIP3      H2             19.8198300144       34.5353550639      -41.4195601870  TIP3      6290            0.0000000000
     41123      6483  TIP3      OH2             1.2633610010       31.7409730040      -28.9841299770  TIP3      6291            0.0000000000
     41124      6483  TIP3      H1              1.3132999621       31.5427647851      -29.9192539056  TIP3      6291            0.0000000000
     41125      6483  TIP3      H2              1.8660953059       30.9952417666      -28.6796908845  TIP3      6291            0.0000000000
     41126      6484  TIP3      OH2             1.6259478899       34.3867442549      -32.0576652383  TIP3      6292            0.0000000000
     41127      6484  TIP3      H1              2.5815193212       34.2962403225      -32.0886954970  TIP3      6292            0.0000000000
     41128      6484  TIP3      H2              1.5326250320       35.1883909046      -31.5229797980  TIP3      6292            0.0000000000
     41129      6485  TIP3      OH2            19.8673387896       35.1044728772      -26.3055325097  TIP3      6293            0.0000000000
     41130      6485  TIP3      H1             19.6974408548       34.1489525963      -26.4296166033  TIP3      6293            0.0000000000
     41131      6485  TIP3      H2             18.9591486996       35.3840325104      -26.0220764711  TIP3      6293            0.0000000000
     41132      6486  TIP3      OH2            10.7730694995       34.6630863836      -27.5190809754  TIP3      6294            0.0000000000
     41133      6486  TIP3      H1             10.8722280270       35.4744858301      -27.0122407055  TIP3      6294            0.0000000000
     41134      6486  TIP3      H2              9.9182092638       34.2694434306      -27.2499080923  TIP3      6294            0.0000000000
     41135      6487  TIP3      OH2            16.9490606355       26.5580647690      -25.9065297749  TIP3      6295            0.0000000000
     41136      6487  TIP3      H1             16.5018601067       27.0289108431      -26.6262723939  TIP3      6295            0.0000000000
     41137      6487  TIP3      H2             16.9953531918       25.6520939987      -26.2366399715  TIP3      6295            0.0000000000
     41138      6488  TIP3      OH2             4.0694565337       33.5813194514      -27.7397107918  TIP3      6296            0.0000000000
     41139      6488  TIP3      H1              4.3670430722       32.8531318593      -27.1375499268  TIP3      6296            0.0000000000
     41140      6488  TIP3      H2              3.4552296658       32.9066666321      -28.1439138135  TIP3      6296            0.0000000000
     41141      6489  TIP3      OH2             6.7927805907       21.4515383123      -31.9497347751  TIP3      6297            0.0000000000
     41142      6489  TIP3      H1              5.8890190313       21.3355414363      -32.3175232358  TIP3      6297            0.0000000000
     41143      6489  TIP3      H2              6.6692190197       22.2871286557      -31.4715399533  TIP3      6297            0.0000000000
     41144      6490  TIP3      OH2            11.4411047732       21.1160488287      -28.5921231670  TIP3      6298            0.0000000000
     41145      6490  TIP3      H1             11.8183963495       20.7168649923      -27.7849227623  TIP3      6298            0.0000000000
     41146      6490  TIP3      H2             10.4680932936       21.0069394099      -28.4404304304  TIP3      6298            0.0000000000
     41147      6491  TIP3      OH2            14.7231624759       24.9504629868      -27.7018489195  TIP3      6299            0.0000000000
     41148      6491  TIP3      H1             14.1599244694       24.7598215685      -26.9159608023  TIP3      6299            0.0000000000
     41149      6491  TIP3      H2             14.5590923946       25.8866363978      -27.9089107801  TIP3      6299            0.0000000000
     41150      6492  TIP3      OH2            15.5555771394       29.8259531908      -41.7754682516  TIP3      6300            0.0000000000
     41151      6492  TIP3      H1             15.5686161114       29.6423294517      -42.7352134427  TIP3      6300            0.0000000000
     41152      6492  TIP3      H2             16.4282714151       30.2479101791      -41.6789323154  TIP3      6300            0.0000000000
     41153      6493  TIP3      OH2            11.0864027980       23.6942845978      -41.2482933543  TIP3      6301            0.0000000000
     41154      6493  TIP3      H1             10.7694616013       23.6471007428      -40.3285509523  TIP3      6301            0.0000000000
     41155      6493  TIP3      H2             10.8075350011       22.8171452203      -41.5404813242  TIP3      6301            0.0000000000
     41156      6494  TIP3      OH2             6.8907628365       26.4233619657      -30.7046521969  TIP3      6302            0.0000000000
     41157      6494  TIP3      H1              6.1572885693       26.4234550728      -30.0608985381  TIP3      6302            0.0000000000
     41158      6494  TIP3      H2              6.8442909832       27.3437295653      -31.0599126231  TIP3      6302            0.0000000000
     41159      6495  TIP3      OH2             6.8586369092       26.5556082101      -35.8387790108  TIP3      6303            0.0000000000
     41160      6495  TIP3      H1              5.9238023156       26.2938133458      -35.9739924595  TIP3      6303            0.0000000000
     41161      6495  TIP3      H2              7.2401400070       26.2556288362      -36.6871422234  TIP3      6303            0.0000000000
     41162      6496  TIP3      OH2            12.4058740340       27.0685719879      -37.0564554358  TIP3      6304            0.0000000000
     41163      6496  TIP3      H1             11.9656277494       27.8694271515      -37.4242526391  TIP3      6304            0.0000000000
     41164      6496  TIP3      H2             13.0566146077       26.8802150877      -37.7654532953  TIP3      6304            0.0000000000
     41165      6497  TIP3      OH2            11.4534849577       27.2744843010      -25.5984141897  TIP3      6305            0.0000000000
     41166      6497  TIP3      H1             10.9116400374       26.4928164625      -25.3260850993  TIP3      6305            0.0000000000
     41167      6497  TIP3      H2             12.2824398412       27.1218333480      -25.1247876745  TIP3      6305            0.0000000000
     41168      6498  TIP3      OH2            13.4202109853       26.5675540054      -34.2584214404  TIP3      6306            0.0000000000
     41169      6498  TIP3      H1             13.1137537562       27.0302884562      -35.0589994449  TIP3      6306            0.0000000000
     41170      6498  TIP3      H2             13.5138717863       25.6756224906      -34.6731466621  TIP3      6306            0.0000000000
     41171      6499  TIP3      OH2             4.5215379974       26.6681366686      -29.0267924152  TIP3      6307            0.0000000000
     41172      6499  TIP3      H1              4.6087763058       27.1093630901      -28.1559453443  TIP3      6307            0.0000000000
     41173      6499  TIP3      H2              4.0666464047       25.8446522883      -28.7989887011  TIP3      6307            0.0000000000
     41174      6500  TIP3      OH2             8.0651983773       24.2960522997      -41.8490007686  TIP3      6308            0.0000000000
     41175      6500  TIP3      H1              7.5201182989       23.6665332404      -41.3311035249  TIP3      6308            0.0000000000
     41176      6500  TIP3      H2              7.4528679131       24.6532364107      -42.4904327749  TIP3      6308            0.0000000000
     41177      6501  TIP3      OH2             1.1785590620       23.7955516552      -35.0408986679  TIP3      6309            0.0000000000
     41178      6501  TIP3      H1              1.8575906040       23.7574130672      -34.3377044730  TIP3      6309            0.0000000000
     41179      6501  TIP3      H2              1.6298001560       23.4121040816      -35.8160036096  TIP3      6309            0.0000000000
     41180      6502  TIP3      OH2             2.4733227692       24.5188577788      -39.6668923087  TIP3      6310            0.0000000000
     41181      6502  TIP3      H1              2.9594318070       25.1133026002      -40.2740068647  TIP3      6310            0.0000000000
     41182      6502  TIP3      H2              1.7792791567       25.1370305405      -39.3508865054  TIP3      6310            0.0000000000
     41183      6503  TIP3      OH2            12.6035548794       28.1235463676      -29.7001861408  TIP3      6311            0.0000000000
     41184      6503  TIP3      H1             12.9879993251       27.4018653609      -30.2310902333  TIP3      6311            0.0000000000
     41185      6503  TIP3      H2             12.1558777851       27.6214106200      -28.9844756864  TIP3      6311            0.0000000000
     41186      6504  TIP3      OH2             9.4147003032       24.0978203819      -34.8319129923  TIP3      6312            0.0000000000
     41187      6504  TIP3      H1              8.4804760095       24.1033187559      -34.5425079371  TIP3      6312            0.0000000000
     41188      6504  TIP3      H2              9.8891180519       23.9168360927      -34.0085224456  TIP3      6312            0.0000000000
     41189      6505  TIP3      OH2             4.2250665243       25.6529639631      -35.9630951731  TIP3      6313            0.0000000000
     41190      6505  TIP3      H1              3.3390062655       25.8017864326      -36.3525315783  TIP3      6313            0.0000000000
     41191      6505  TIP3      H2              4.5110865248       24.8177129673      -36.3682839873  TIP3      6313            0.0000000000
     41192      6506  TIP3      OH2             7.8608370127       25.7132827622      -38.3296327285  TIP3      6314            0.0000000000
     41193      6506  TIP3      H1              8.8198678639       25.8116873264      -38.1646977454  TIP3      6314            0.0000000000
     41194      6506  TIP3      H2              7.6357163553       26.3639094502      -39.0157109009  TIP3      6314            0.0000000000
     41195      6507  TIP3      OH2            13.8186621865       23.3632129599      -31.5997792171  TIP3      6315            0.0000000000
     41196      6507  TIP3      H1             13.1407140109       23.3695147847      -30.8851410229  TIP3      6315            0.0000000000
     41197      6507  TIP3      H2             13.3138204183       23.0609712927      -32.3693251549  TIP3      6315            0.0000000000
     41198      6508  TIP3      OH2             6.5615537131       26.8692965789      -40.7386537296  TIP3      6316            0.0000000000
     41199      6508  TIP3      H1              6.0079757434       26.5187673877      -41.4583177733  TIP3      6316            0.0000000000
     41200      6508  TIP3      H2              7.3878343299       27.0842039702      -41.2008061528  TIP3      6316            0.0000000000
     41201      6509  TIP3      OH2             4.7431655881       31.4634425312      -25.5360185418  TIP3      6317            0.0000000000
     41202      6509  TIP3      H1              5.4467318999       31.7331615670      -24.9453188833  TIP3      6317            0.0000000000
     41203      6509  TIP3      H2              3.9207077644       31.5871792777      -25.0286643250  TIP3      6317            0.0000000000
     41204      6510  TIP3      OH2            10.7830028328       26.8848133936      -32.9099990502  TIP3      6318            0.0000000000
     41205      6510  TIP3      H1             11.2443923011       26.2682732044      -33.4893711434  TIP3      6318            0.0000000000
     41206      6510  TIP3      H2             10.5238754367       26.3112771312      -32.1655145322  TIP3      6318            0.0000000000
     41207      6511  TIP3      OH2             5.7073349125       22.9978138261      -36.4904357052  TIP3      6319            0.0000000000
     41208      6511  TIP3      H1              5.3990951173       22.0745425306      -36.5161222073  TIP3      6319            0.0000000000
     41209      6511  TIP3      H2              6.4951491180       22.9409674539      -37.0498289379  TIP3      6319            0.0000000000
     41210      6512  TIP3      OH2             9.3528643014       25.1964536978      -30.5377537498  TIP3      6320            0.0000000000
     41211      6512  TIP3      H1              8.5180724388       25.6939157618      -30.4343851224  TIP3      6320            0.0000000000
     41212      6512  TIP3      H2              9.8811173167       25.5228922218      -29.7821058674  TIP3      6320            0.0000000000
     41213      6513  TIP3      OH2             9.9304370222       31.3917268841      -38.8061341574  TIP3      6321            0.0000000000
     41214      6513  TIP3      H1              9.1301818588       30.9349690269      -39.1451392452  TIP3      6321            0.0000000000
     41215      6513  TIP3      H2              9.7104062591       31.5044474028      -37.8628942481  TIP3      6321            0.0000000000
     41216      6514  TIP3      OH2            17.1032112813       30.5755562952      -30.0410466897  TIP3      6322            0.0000000000
     41217      6514  TIP3      H1             17.6816888766       31.0983881001      -30.6302867237  TIP3      6322            0.0000000000
     41218      6514  TIP3      H2             16.2478121495       30.6888267132      -30.4871250398  TIP3      6322            0.0000000000
     41219      6515  TIP3      OH2            13.7942884269       24.2014694626      -40.6376385515  TIP3      6323            0.0000000000
     41220      6515  TIP3      H1             12.8479109250       24.3557602360      -40.8087036480  TIP3      6323            0.0000000000
     41221      6515  TIP3      H2             14.0912288407       25.0769204083      -40.3292773722  TIP3      6323            0.0000000000
     41222      6516  TIP3      OH2            11.3783034121       31.6895981601      -27.6053870573  TIP3      6324            0.0000000000
     41223      6516  TIP3      H1             11.0680785974       31.2618932572      -26.7984783059  TIP3      6324            0.0000000000
     41224      6516  TIP3      H2             11.1721279519       32.6188574543      -27.4760864591  TIP3      6324            0.0000000000
     41225      6517  TIP3      OH2            14.4945125918       26.1385119271      -38.9747094068  TIP3      6325            0.0000000000
     41226      6517  TIP3      H1             15.3929055117       26.0024519501      -38.6167997620  TIP3      6325            0.0000000000
     41227      6517  TIP3      H2             14.5810032981       26.9463692123      -39.5041619126  TIP3      6325            0.0000000000
     41228      6518  TIP3      OH2             5.0267664179       30.7957847138      -33.0271675458  TIP3      6326            0.0000000000
     41229      6518  TIP3      H1              5.7308364322       30.7238480211      -33.6961693967  TIP3      6326            0.0000000000
     41230      6518  TIP3      H2              5.0883673735       29.9375362935      -32.5650332588  TIP3      6326            0.0000000000
     41231      6519  TIP3      OH2            12.0242342015       32.8707751102      -39.7881381486  TIP3      6327            0.0000000000
     41232      6519  TIP3      H1             11.6815460358       33.7120023086      -39.4360487109  TIP3      6327            0.0000000000
     41233      6519  TIP3      H2             11.2851133151       32.2606187409      -39.5875333314  TIP3      6327            0.0000000000
     41234      6520  TIP3      OH2             1.7360568993       29.1058907383      -27.6888462467  TIP3      6328            0.0000000000
     41235      6520  TIP3      H1              2.1889988869       28.7052448575      -26.9278686882  TIP3      6328            0.0000000000
     41236      6520  TIP3      H2              1.3353787553       28.4157879624      -28.2171201126  TIP3      6328            0.0000000000
     41237      6521  TIP3      OH2             9.0432041208       28.7677884211      -25.5951557438  TIP3      6329            0.0000000000
     41238      6521  TIP3      H1              8.7057069834       28.4641692094      -26.4585974738  TIP3      6329            0.0000000000
     41239      6521  TIP3      H2              9.9668125653       28.4546903975      -25.5997948471  TIP3      6329            0.0000000000
     41240      6522  TIP3      OH2            13.7041198563       34.1401847381      -27.6893917975  TIP3      6330            0.0000000000
     41241      6522  TIP3      H1             12.7662082441       34.2358494424      -27.8871885668  TIP3      6330            0.0000000000
     41242      6522  TIP3      H2             13.6783429334       34.3362204166      -26.7215648950  TIP3      6330            0.0000000000
     41243      6523  TIP3      OH2            19.3900816613       26.2769574259      -39.2103920600  TIP3      6331            0.0000000000
     41244      6523  TIP3      H1             18.8325826224       25.9641986743      -39.9464596213  TIP3      6331            0.0000000000
     41245      6523  TIP3      H2             19.4713412703       27.2107942038      -39.5070273336  TIP3      6331            0.0000000000
     41246      6524  TIP3      OH2            19.4011481484       32.1541914962      -26.4460729246  TIP3      6332            0.0000000000
     41247      6524  TIP3      H1             18.5000980280       32.3397471870      -26.8114279875  TIP3      6332            0.0000000000
     41248      6524  TIP3      H2             19.9309363717       32.0620006783      -27.2607729444  TIP3      6332            0.0000000000
     41249      6525  TIP3      OH2            17.8410475013       34.8577824357      -38.6526032027  TIP3      6333            0.0000000000
     41250      6525  TIP3      H1             17.2453902453       34.1374799110      -38.5150781001  TIP3      6333            0.0000000000
     41251      6525  TIP3      H2             17.9462884922       34.9205074061      -39.6222203574  TIP3      6333            0.0000000000
     41252      6526  TIP3      OH2            14.8839508471       29.9480323928      -31.8164352062  TIP3      6334            0.0000000000
     41253      6526  TIP3      H1             13.9413934226       29.7544382717      -31.7112947426  TIP3      6334            0.0000000000
     41254      6526  TIP3      H2             15.3656937674       29.1534047679      -32.1181530574  TIP3      6334            0.0000000000
     41255      6527  TIP3      OH2             7.4395603120       34.2221708532      -35.7230531189  TIP3      6335            0.0000000000
     41256      6527  TIP3      H1              7.9097454203       35.0583403662      -35.8170869595  TIP3      6335            0.0000000000
     41257      6527  TIP3      H2              6.5284027639       34.4588216097      -35.9327648248  TIP3      6335            0.0000000000
     41258      6528  TIP3      OH2             3.1370837675       29.1127556900      -41.1085432061  TIP3      6336            0.0000000000
     41259      6528  TIP3      H1              3.7616762253       29.7364643163      -40.6929685192  TIP3      6336            0.0000000000
     41260      6528  TIP3      H2              2.2676987339       29.3962520501      -40.7780403970  TIP3      6336            0.0000000000
     41261      6529  TIP3      OH2             8.8463245366       31.9054619076      -36.1043033270  TIP3      6337            0.0000000000
     41262      6529  TIP3      H1              8.5324169055       32.8293671394      -36.0388370765  TIP3      6337            0.0000000000
     41263      6529  TIP3      H2              8.1045374342       31.4314024989      -35.6784409253  TIP3      6337            0.0000000000
     41264      6530  TIP3      OH2             9.5700541589       35.7970504268      -30.0198152867  TIP3      6338            0.0000000000
     41265      6530  TIP3      H1              9.7148929148       36.7500912102      -30.0896910902  TIP3      6338            0.0000000000
     41266      6530  TIP3      H2              9.8835481290       35.6510026369      -29.1152003280  TIP3      6338            0.0000000000
     41267      6531  TIP3      OH2            12.7946404897       32.0887553704      -30.1097590691  TIP3      6339            0.0000000000
     41268      6531  TIP3      H1             12.4575095352       31.9121694286      -29.2054328267  TIP3      6339            0.0000000000
     41269      6531  TIP3      H2             13.4583806823       31.4040818321      -30.2326757120  TIP3      6339            0.0000000000
     41270      6532  TIP3      OH2            15.0967427696       33.0759850191      -40.9794304616  TIP3      6340            0.0000000000
     41271      6532  TIP3      H1             15.4037647724       32.7027523119      -40.1330473865  TIP3      6340            0.0000000000
     41272      6532  TIP3      H2             14.1378220656       32.9930265745      -40.8986521229  TIP3      6340            0.0000000000
     41273      6533  TIP3      OH2             3.6806465320       23.9473407408      -28.1876271772  TIP3      6341            0.0000000000
     41274      6533  TIP3      H1              2.7697161597       24.2895054914      -28.2277648664  TIP3      6341            0.0000000000
     41275      6533  TIP3      H2              3.5563261574       23.0851887023      -27.7633782533  TIP3      6341            0.0000000000
     41276      6534  TIP3      OH2            15.9214005154       31.7385447520      -38.7784355437  TIP3      6342            0.0000000000
     41277      6534  TIP3      H1             15.6803835966       30.9772362777      -38.2197606736  TIP3      6342            0.0000000000
     41278      6534  TIP3      H2             16.8547822011       31.8767006512      -38.5488183208  TIP3      6342            0.0000000000
     41279      6535  TIP3      OH2             3.3031864695       35.7161438372      -29.8066682198  TIP3      6343            0.0000000000
     41280      6535  TIP3      H1              3.5592287627       34.7899296757      -29.7522036824  TIP3      6343            0.0000000000
     41281      6535  TIP3      H2              3.4946077701       36.0118203692      -28.9038330961  TIP3      6343            0.0000000000
     41282      6536  TIP3      OH2             8.0408642858       33.7751674040      -40.1046937524  TIP3      6344            0.0000000000
     41283      6536  TIP3      H1              8.2820851608       33.2315069911      -39.3446580145  TIP3      6344            0.0000000000
     41284      6536  TIP3      H2              8.1401613801       34.6783783760      -39.7598710220  TIP3      6344            0.0000000000
     41285      6537  TIP3      OH2             4.5231052054       31.0475435770      -39.6275572270  TIP3      6345            0.0000000000
     41286      6537  TIP3      H1              3.8694675714       31.4390344216      -39.0136574632  TIP3      6345            0.0000000000
     41287      6537  TIP3      H2              5.0900186817       31.8093189429      -39.8447484277  TIP3      6345            0.0000000000
     41288      6538  TIP3      OH2            12.4047528422       23.7056160825      -29.2535599925  TIP3      6346            0.0000000000
     41289      6538  TIP3      H1             13.1337753528       23.7618661215      -28.6256713036  TIP3      6346            0.0000000000
     41290      6538  TIP3      H2             12.0241904276       22.8269419433      -29.0613895927  TIP3      6346            0.0000000000
     41291      6539  TIP3      OH2            13.1421224828       23.3013601156      -38.1530951073  TIP3      6347            0.0000000000
     41292      6539  TIP3      H1             13.3935295065       23.7576682958      -38.9834183121  TIP3      6347            0.0000000000
     41293      6539  TIP3      H2             13.7333650852       23.7293345949      -37.5265100159  TIP3      6347            0.0000000000
     41294      6540  TIP3      OH2            10.8565333573       35.4611791234      -39.3078132729  TIP3      6348            0.0000000000
     41295      6540  TIP3      H1             10.0161383710       35.9411557745      -39.2876184830  TIP3      6348            0.0000000000
     41296      6540  TIP3      H2             11.3783756404       35.9439624464      -39.9822955979  TIP3      6348            0.0000000000
     41297      6541  TIP3      OH2            10.3648841247       25.0282922122      -37.3652756755  TIP3      6349            0.0000000000
     41298      6541  TIP3      H1             11.1573293700       25.5941706983      -37.3399984761  TIP3      6349            0.0000000000
     41299      6541  TIP3      H2             10.1045518576       24.9030797161      -36.4358244880  TIP3      6349            0.0000000000
     41300      6542  TIP3      OH2            10.9360325085       26.0624378322      -28.1921908609  TIP3      6350            0.0000000000
     41301      6542  TIP3      H1             10.9964873468       26.6218099024      -27.3950246170  TIP3      6350            0.0000000000
     41302      6542  TIP3      H2             11.5942564927       25.3664666639      -28.0705841509  TIP3      6350            0.0000000000
     41303      6543  TIP3      OH2            11.2311368892       22.0929257797      -36.4699801463  TIP3      6351            0.0000000000
     41304      6543  TIP3      H1             10.9107056692       22.7392830240      -35.8178105603  TIP3      6351            0.0000000000
     41305      6543  TIP3      H2             11.9233522986       22.6379471098      -36.9209680102  TIP3      6351            0.0000000000
     41306      6544  TIP3      OH2             8.2328026810      -36.5300888088      -39.3529274699  TIP3      6352            0.0000000000
     41307      6544  TIP3      H1              8.3527807562      -35.6981321698      -39.8204508806  TIP3      6352            0.0000000000
     41308      6544  TIP3      H2              8.0008716382      -36.2061519255      -38.4631114531  TIP3      6352            0.0000000000
     41309      6545  TIP3      OH2             6.8951318058       23.1786733214      -39.7148486205  TIP3      6353            0.0000000000
     41310      6545  TIP3      H1              6.8298220956       24.0976803553      -39.3828306115  TIP3      6353            0.0000000000
     41311      6545  TIP3      H2              7.8109764229       22.9603199953      -39.4592922004  TIP3      6353            0.0000000000
     41312      6546  TIP3      OH2            17.1162330490       23.9282716412      -27.3117313002  TIP3      6354            0.0000000000
     41313      6546  TIP3      H1             16.1874911926       24.2398602726      -27.4441389420  TIP3      6354            0.0000000000
     41314      6546  TIP3      H2             17.4209879944       23.9115877733      -28.2348556030  TIP3      6354            0.0000000000
     41315      6547  TIP3      OH2            15.6635955015       27.7097109002      -33.2460194666  TIP3      6355            0.0000000000
     41316      6547  TIP3      H1             14.9984226699       27.1260468890      -33.6438524543  TIP3      6355            0.0000000000
     41317      6547  TIP3      H2             16.2487708761       27.0464164179      -32.7891827576  TIP3      6355            0.0000000000
     41318      6548  TIP3      OH2             5.1290846099       33.6429884431      -40.6954868726  TIP3      6356            0.0000000000
     41319      6548  TIP3      H1              5.7943054102       34.2797775806      -40.4240559586  TIP3      6356            0.0000000000
     41320      6548  TIP3      H2              5.6414446758       33.1929621671      -41.3980352277  TIP3      6356            0.0000000000
     41321      6549  TIP3      OH2             3.5148177327       26.3110324120      -41.5106388116  TIP3      6357            0.0000000000
     41322      6549  TIP3      H1              3.4831164995       27.2770607846      -41.3963225859  TIP3      6357            0.0000000000
     41323      6549  TIP3      H2              2.6427834741       26.1128463653      -41.8716003146  TIP3      6357            0.0000000000
     41324      6550  TIP3      OH2             4.2829491591       21.0968344594      -32.8317199193  TIP3      6358            0.0000000000
     41325      6550  TIP3      H1              4.0826549863       21.1171740273      -33.7940875783  TIP3      6358            0.0000000000
     41326      6550  TIP3      H2              3.8637860470       20.2484590255      -32.5767235343  TIP3      6358            0.0000000000
     41327      6551  TIP3      OH2             3.2523987740       35.0170794858      -36.7171250639  TIP3      6359            0.0000000000
     41328      6551  TIP3      H1              2.3875874334       35.4463680167      -36.7076394076  TIP3      6359            0.0000000000
     41329      6551  TIP3      H2              3.7502479688       35.5091887496      -37.3774031807  TIP3      6359            0.0000000000
     41330      6552  TIP3      OH2             7.3590551665       36.2398410364      -23.5690604926  TIP3      6360            0.0000000000
     41331      6552  TIP3      H1              8.2424913300       35.9212101684      -23.3904552697  TIP3      6360            0.0000000000
     41332      6552  TIP3      H2              7.3012641221       36.1343318840      -24.5438986012  TIP3      6360            0.0000000000
     41333      6553  TIP3      OH2            11.5672830340       36.2838166313      -41.7354904865  TIP3      6361            0.0000000000
     41334      6553  TIP3      H1             10.7614283756       35.7509105233      -41.8834687548  TIP3      6361            0.0000000000
     41335      6553  TIP3      H2             12.0775749159       35.8231039882      -42.4247834354  TIP3      6361            0.0000000000
     41336      6554  TIP3      OH2            13.6762492719       34.6728920581      -25.1820891201  TIP3      6362            0.0000000000
     41337      6554  TIP3      H1             13.2420699908       33.9377412716      -24.7070004263  TIP3      6362            0.0000000000
     41338      6554  TIP3      H2             14.2993017901       35.0211783617      -24.5379412574  TIP3      6362            0.0000000000
     41339      6555  TIP3      OH2            15.7833067348       35.8257671280      -42.1687093624  TIP3      6363            0.0000000000
     41340      6555  TIP3      H1             16.0640140808       35.0474906905      -41.6672769732  TIP3      6363            0.0000000000
     41341      6555  TIP3      H2             16.5892767871       35.9832279796      -42.6934746152  TIP3      6363            0.0000000000
     41342      6556  TIP3      OH2             2.3026515692       31.3674636547      -24.3503449449  TIP3      6364            0.0000000000
     41343      6556  TIP3      H1              2.5659970868       30.5407363220      -24.7847196185  TIP3      6364            0.0000000000
     41344      6556  TIP3      H2              1.6513604771       31.7261284995      -24.9814302979  TIP3      6364            0.0000000000
     41345      6557  TIP3      OH2             6.7925184386       31.8389042548      -42.2324874291  TIP3      6365            0.0000000000
     41346      6557  TIP3      H1              6.8503163377       31.0029809195      -41.7706649792  TIP3      6365            0.0000000000
     41347      6557  TIP3      H2              7.3542900268       31.6362376767      -43.0072505670  TIP3      6365            0.0000000000
     41348      6558  TIP3      OH2             9.0729935935       31.4275609484      -25.0373488060  TIP3      6366            0.0000000000
     41349      6558  TIP3      H1              8.7026516146       31.7221520655      -25.8854986938  TIP3      6366            0.0000000000
     41350      6558  TIP3      H2              9.1438861024       30.4432310303      -25.1368778190  TIP3      6366            0.0000000000
     41351      6559  TIP3      OH2            14.7760937737       31.2953414447      -27.6179570687  TIP3      6367            0.0000000000
     41352      6559  TIP3      H1             15.5568403750       31.8812520508      -27.7085813798  TIP3      6367            0.0000000000
     41353      6559  TIP3      H2             14.0626888551       31.9436963007      -27.5960879269  TIP3      6367            0.0000000000
     41354      6560  TIP3      OH2             3.2008482973       28.6504433094      -24.9655466083  TIP3      6368            0.0000000000
     41355      6560  TIP3      H1              3.6972220055       27.8447957676      -25.1362096723  TIP3      6368            0.0000000000
     41356      6560  TIP3      H2              3.0329483713       28.6243769170      -24.0289987811  TIP3      6368            0.0000000000
     41357      6561  TIP3      OH2             7.9321132898       29.8190258137      -39.9592374016  TIP3      6369            0.0000000000
     41358      6561  TIP3      H1              7.4176589950       29.2890856740      -39.3298058804  TIP3      6369            0.0000000000
     41359      6561  TIP3      H2              8.2203905352       29.1261326881      -40.6011504504  TIP3      6369            0.0000000000
     41360      6562  TIP3      OH2             7.3872783768       27.5398871650      -27.6430134795  TIP3      6370            0.0000000000
     41361      6562  TIP3      H1              6.6716650822       28.1855845714      -27.3822616033  TIP3      6370            0.0000000000
     41362      6562  TIP3      H2              7.5843884739       27.9621118634      -28.4906434364  TIP3      6370            0.0000000000
     41363      6563  TIP3      OH2             8.9890379482       28.0409838206      -41.7584291473  TIP3      6371            0.0000000000
     41364      6563  TIP3      H1              8.8737448938       27.8450419533      -42.6981364643  TIP3      6371            0.0000000000
     41365      6563  TIP3      H2              9.9674823102       28.1131919290      -41.6568789941  TIP3      6371            0.0000000000
     41366      6564  TIP3      OH2            12.2470952081       30.2074166958      -24.2677825584  TIP3      6372            0.0000000000
     41367      6564  TIP3      H1             13.1925826488       30.1553696911      -24.4782057820  TIP3      6372            0.0000000000
     41368      6564  TIP3      H2             12.0682099506       29.4063385295      -23.7799033238  TIP3      6372            0.0000000000
     41369      6565  TIP3      OH2            18.1887931445       30.4933964571       42.7628730934  TIP3      6373            0.0000000000
     41370      6565  TIP3      H1             18.0665230909       29.9913111887       41.9397447503  TIP3      6373            0.0000000000
     41371      6565  TIP3      H2             18.3865369172       31.3884797242       42.4578310140  TIP3      6373            0.0000000000
     41372      6566  TIP3      OH2             7.5644301860       25.0025669551      -26.5931744121  TIP3      6374            0.0000000000
     41373      6566  TIP3      H1              7.6889672859       24.2890637098      -27.2456246404  TIP3      6374            0.0000000000
     41374      6566  TIP3      H2              7.5389217437       25.8112433014      -27.1494634498  TIP3      6374            0.0000000000
     41375      6567  TIP3      OH2             7.9844949099       23.3752176314      -29.0496880767  TIP3      6375            0.0000000000
     41376      6567  TIP3      H1              8.4959106179       23.8322906461      -29.7537353681  TIP3      6375            0.0000000000
     41377      6567  TIP3      H2              7.0922888023       23.2859929656      -29.4531635133  TIP3      6375            0.0000000000
     41378      6568  TIP3      OH2             9.5302040032       28.8632337556      -28.8012034949  TIP3      6376            0.0000000000
     41379      6568  TIP3      H1             10.2763572907       28.6924320848      -29.3849998926  TIP3      6376            0.0000000000
     41380      6568  TIP3      H2              9.1477139773       29.6900192903      -29.1433799438  TIP3      6376            0.0000000000
     41381      6569  TIP3      OH2            13.9323784913       26.6007560543      -23.7893562637  TIP3      6377            0.0000000000
     41382      6569  TIP3      H1             14.1593365108       25.6831310737      -23.9758299061  TIP3      6377            0.0000000000
     41383      6569  TIP3      H2             14.7890294291       27.0473538741      -23.8827834295  TIP3      6377            0.0000000000
     41384      6570  TIP3      OH2            15.2491623000       29.4112017457      -25.7069428989  TIP3      6378            0.0000000000
     41385      6570  TIP3      H1             15.0160605967       30.1373560781      -26.3226300775  TIP3      6378            0.0000000000
     41386      6570  TIP3      H2             16.2147405605       29.3884180326      -25.8613938762  TIP3      6378            0.0000000000
     41387      6571  TIP3      OH2             6.0327210615       26.2313616806      -24.6479639326  TIP3      6379            0.0000000000
     41388      6571  TIP3      H1              5.2634259246       25.6638240826      -24.8475486514  TIP3      6379            0.0000000000
     41389      6571  TIP3      H2              6.6771234077       25.8882068781      -25.2942538010  TIP3      6379            0.0000000000
     41390      6572  TIP3      OH2             8.7711785091       20.8114575005      -28.6870917652  TIP3      6380            0.0000000000
     41391      6572  TIP3      H1              8.5953280222       21.7776527134      -28.7479344571  TIP3      6380            0.0000000000
     41392      6572  TIP3      H2              8.0072096966       20.4503460773      -29.1676672458  TIP3      6380            0.0000000000
     41393      6573  TIP3      OH2            10.0505493212       25.1270310351      -25.0530284136  TIP3      6381            0.0000000000
     41394      6573  TIP3      H1              9.7056220749       24.9170563053      -24.1702608710  TIP3      6381            0.0000000000
     41395      6573  TIP3      H2              9.2456014882       24.9349461342      -25.5808859681  TIP3      6381            0.0000000000
     41396      6574  TIP3      OH2            12.7684872552       24.3057836530      -25.9228587022  TIP3      6382            0.0000000000
     41397      6574  TIP3      H1             11.7937445462       24.3225577930      -25.8567913900  TIP3      6382            0.0000000000
     41398      6574  TIP3      H2             13.0087091033       23.6028704444      -25.3048535657  TIP3      6382            0.0000000000
     41399      6575  TIP3      OH2            14.4268792857       22.9171059396      -23.9718147680  TIP3      6383            0.0000000000
     41400      6575  TIP3      H1             14.2396647061       21.9578333275      -24.0807787488  TIP3      6383            0.0000000000
     41401      6575  TIP3      H2             14.0163916073       23.1567377507      -23.1439943443  TIP3      6383            0.0000000000
     41402      6576  TIP3      OH2             4.1978071427       24.1707348828      -24.9434111574  TIP3      6384            0.0000000000
     41403      6576  TIP3      H1              4.3973219442       23.4353030960      -25.5446316597  TIP3      6384            0.0000000000
     41404      6576  TIP3      H2              4.0157140523       23.7226250480      -24.1082401501  TIP3      6384            0.0000000000
     41405      6577  TIP3      OH2             8.9306901984       20.1504633963      -25.9413289793  TIP3      6385            0.0000000000
     41406      6577  TIP3      H1              9.6727114162       19.5136317122      -25.9458441878  TIP3      6385            0.0000000000
     41407      6577  TIP3      H2              8.8775817408       20.3573294850      -26.8866601838  TIP3      6385            0.0000000000
     41408      6578  TIP3      OH2             2.4032846522       33.3668096035      -41.2515427590  TIP3      6386            0.0000000000
     41409      6578  TIP3      H1              3.3537242245       33.4202605045      -40.9780860760  TIP3      6386            0.0000000000
     41410      6578  TIP3      H2              2.4573225400       32.6881181280      -41.9372898170  TIP3      6386            0.0000000000
     41411      6579  TIP3      OH2            17.5391634195       32.9338524098      -23.7975680402  TIP3      6387            0.0000000000
     41412      6579  TIP3      H1             16.6500149189       32.9079584742      -23.4385523467  TIP3      6387            0.0000000000
     41413      6579  TIP3      H2             17.9156664429       33.7514293251      -23.3952086237  TIP3      6387            0.0000000000
     41414      6580  TIP3      OH2            18.8580443228       31.2308998850      -38.3951316021  TIP3      6388            0.0000000000
     41415      6580  TIP3      H1             19.6861145430       31.6840356133      -38.1714941186  TIP3      6388            0.0000000000
     41416      6580  TIP3      H2             18.8332570569       30.5347128276      -37.7043964574  TIP3      6388            0.0000000000
     41417      6581  TIP3      OH2            19.2077338928       29.3399470598      -36.5052299246  TIP3      6389            0.0000000000
     41418      6581  TIP3      H1             18.4685324633       28.8204040330      -36.1250500670  TIP3      6389            0.0000000000
     41419      6581  TIP3      H2             19.8045319290       29.4727486906      -35.7401770158  TIP3      6389            0.0000000000
     41420      6582  TIP3      OH2            18.9675991580       32.0322728953      -31.4920025439  TIP3      6390            0.0000000000
     41421      6582  TIP3      H1             19.7750499619       31.6629858099      -31.8883856748  TIP3      6390            0.0000000000
     41422      6582  TIP3      H2             19.1047458151       32.9877643021      -31.6687464622  TIP3      6390            0.0000000000
     41423      6583  TIP3      OH2            17.4826081563       34.9229585417      -29.1994012629  TIP3      6391            0.0000000000
     41424      6583  TIP3      H1             16.7866490547       35.2913899920      -28.6534474868  TIP3      6391            0.0000000000
     41425      6583  TIP3      H2             16.9711537345       34.5590354695      -29.9619689143  TIP3      6391            0.0000000000
     41426      6584  TIP3      OH2            19.4998252217       29.1553365136      -40.1062263984  TIP3      6392            0.0000000000
     41427      6584  TIP3      H1             18.9213754835       29.5334186204      -40.7950274962  TIP3      6392            0.0000000000
     41428      6584  TIP3      H2             19.4313355704       29.8678716543      -39.4389568534  TIP3      6392            0.0000000000
     41429      6585  TIP3      OH2            17.5171682957       26.4370720682      -41.5002767772  TIP3      6393            0.0000000000
     41430      6585  TIP3      H1             17.9401147943       27.0232964437      -42.1516837814  TIP3      6393            0.0000000000
     41431      6585  TIP3      H2             17.6792702656       25.5989268509      -41.9797904698  TIP3      6393            0.0000000000
     41432      6586  TIP3      OH2            16.9901637414       27.8181235450      -35.9316152835  TIP3      6394            0.0000000000
     41433      6586  TIP3      H1             16.8885832566       26.8519941104      -35.9825234200  TIP3      6394            0.0000000000
     41434      6586  TIP3      H2             16.7179156329       28.0275926301      -35.0298278249  TIP3      6394            0.0000000000
     41435      6587  TIP3      OH2             2.0263577063       29.8960046763      -31.8833075325  TIP3      6395            0.0000000000
     41436      6587  TIP3      H1              2.2186405823       29.8207448281      -32.8421288246  TIP3      6395            0.0000000000
     41437      6587  TIP3      H2              2.9140565519       29.7387249276      -31.5016047205  TIP3      6395            0.0000000000
     41438      6588  TIP3      OH2            17.8686304443       29.7797663932      -26.2389101816  TIP3      6396            0.0000000000
     41439      6588  TIP3      H1             18.4840245631       29.0286028449      -26.0846915464  TIP3      6396            0.0000000000
     41440      6588  TIP3      H2             18.4802889814       30.5419576520      -26.2558078920  TIP3      6396            0.0000000000
     41441      6589  TIP3      OH2            19.3758822090       27.6622840287      -25.6123167875  TIP3      6397            0.0000000000
     41442      6589  TIP3      H1             18.4982824077       27.2572580358      -25.7587482830  TIP3      6397            0.0000000000
     41443      6589  TIP3      H2             19.9612919058       26.8874299159      -25.6586964194  TIP3      6397            0.0000000000
     41444      6590  TIP3      OH2            17.1204232645       23.8031732566      -42.4858478973  TIP3      6398            0.0000000000
     41445      6590  TIP3      H1             17.7050420135       23.4010673338      -41.8136435080  TIP3      6398            0.0000000000
     41446      6590  TIP3      H2             16.2344950348       23.4657819790      -42.2748310343  TIP3      6398            0.0000000000
     41447      6591  TIP3      OH2            16.6943198037       25.3968863233      -37.4567221502  TIP3      6399            0.0000000000
     41448      6591  TIP3      H1             17.0006739308       24.4675340134      -37.3488903118  TIP3      6399            0.0000000000
     41449      6591  TIP3      H2             17.4731948813       25.8004755456      -37.8630621914  TIP3      6399            0.0000000000
     41450      6592  TIP3      OH2            17.3169442571       25.9677988985      -32.0352774254  TIP3      6400            0.0000000000
     41451      6592  TIP3      H1             18.2877151164       26.1615247396      -32.0529802617  TIP3      6400            0.0000000000
     41452      6592  TIP3      H2             17.1558437580       26.0662919892      -31.0822439292  TIP3      6400            0.0000000000
     41453      6593  TIP3      OH2            17.3823010566       26.6673586962      -29.2888238479  TIP3      6401            0.0000000000
     41454      6593  TIP3      H1             16.5261085417       26.9570332156      -28.9051800570  TIP3      6401            0.0000000000
     41455      6593  TIP3      H2             17.8420794171       27.5248467911      -29.4614226373  TIP3      6401            0.0000000000
     41456      6594  TIP3      OH2             1.6541132485       25.1641947710      -25.8026137296  TIP3      6402            0.0000000000
     41457      6594  TIP3      H1              2.5689867094       25.0032013364      -25.5036137408  TIP3      6402            0.0000000000
     41458      6594  TIP3      H2              1.1859158284       24.4032090413      -25.3985978818  TIP3      6402            0.0000000000
     41459      6595  TIP3      OH2            19.7281219402       20.7252509695      -23.9009267987  TIP3      6403            0.0000000000
     41460      6595  TIP3      H1             19.9997410621       20.0403694426      -24.5244603635  TIP3      6403            0.0000000000
     41461      6595  TIP3      H2             19.7437238873       21.5349221541      -24.4484988088  TIP3      6403            0.0000000000
     41462      6596  TIP3      OH2            17.3616063076       22.6742541787      -37.4263278943  TIP3      6404            0.0000000000
     41463      6596  TIP3      H1             17.5701013969       22.2344509834      -36.5739367875  TIP3      6404            0.0000000000
     41464      6596  TIP3      H2             16.7552747724       22.0462782318      -37.8727388589  TIP3      6404            0.0000000000
     41465      6597  TIP3      OH2             2.8471012019       23.4881056040      -32.8721006500  TIP3      6405            0.0000000000
     41466      6597  TIP3      H1              3.3086480724       22.6643699759      -32.6099918522  TIP3      6405            0.0000000000
     41467      6597  TIP3      H2              3.3893328330       24.1823407645      -32.4761359624  TIP3      6405            0.0000000000
     41468      6598  TIP3      OH2             1.1371051225       26.4826713789      -31.8293911947  TIP3      6406            0.0000000000
     41469      6598  TIP3      H1              1.6964058949       26.2460364086      -32.5951712667  TIP3      6406            0.0000000000
     41470      6598  TIP3      H2              1.5895581376       27.2993624939      -31.5539239760  TIP3      6406            0.0000000000
     41471      6599  TIP3      OH2            19.2098892835       22.8112429529      -25.5384240027  TIP3      6407            0.0000000000
     41472      6599  TIP3      H1             18.2709698238       23.0788096617      -25.6058381379  TIP3      6407            0.0000000000
     41473      6599  TIP3      H2             19.2383727416       22.2655868462      -26.3406628422  TIP3      6407            0.0000000000
     41474      6600  TIP3      OH2            19.1772580299       22.7388847270      -40.8635560038  TIP3      6408            0.0000000000
     41475      6600  TIP3      H1             19.6037557505       22.0376110774      -41.3816340008  TIP3      6408            0.0000000000
     41476      6600  TIP3      H2             19.8997789373       23.3905150242      -40.8467856257  TIP3      6408            0.0000000000
     41477      6601  TIP3      OH2             1.4924209713       22.7434265785      -37.7700331493  TIP3      6409            0.0000000000
     41478      6601  TIP3      H1              0.5508945466       22.9376651800      -37.8908429665  TIP3      6409            0.0000000000
     41479      6601  TIP3      H2              1.9116495429       23.2431775164      -38.4921648551  TIP3      6409            0.0000000000
     41480      6602  TIP3      OH2             1.4478305074       21.4078423278      -29.4616187108  TIP3      6410            0.0000000000
     41481      6602  TIP3      H1              0.7761604054       21.2130921051      -28.7835908968  TIP3      6410            0.0000000000
     41482      6602  TIP3      H2              0.9882161876       22.0813381306      -30.0036591201  TIP3      6410            0.0000000000
     41483      6603  TIP3      OH2             3.6935815535       34.7282644741      -25.2514940733  TIP3      6411            0.0000000000
     41484      6603  TIP3      H1              2.8569504368       34.7576027885      -25.7615090636  TIP3      6411            0.0000000000
     41485      6603  TIP3      H2              3.3995781674       34.4926913259      -24.3656628697  TIP3      6411            0.0000000000
     41486      6604  TIP3      OH2             6.6326412986       35.6242254839      -28.9671967917  TIP3      6412            0.0000000000
     41487      6604  TIP3      H1              6.1784848676       36.3968380078      -29.3251957494  TIP3      6412            0.0000000000
     41488      6604  TIP3      H2              7.4976523278       35.6104308052      -29.3962237454  TIP3      6412            0.0000000000
     41489      6605  TIP3      OH2            18.2239110431       20.9203533094      -27.7165275782  TIP3      6413            0.0000000000
     41490      6605  TIP3      H1             17.3795262665       21.2062691464      -28.1033313169  TIP3      6413            0.0000000000
     41491      6605  TIP3      H2             18.3775140202       20.0929097860      -28.2233026398  TIP3      6413            0.0000000000
     41492      6606  TIP3      OH2             5.7782484501       35.9656221219      -33.6504821851  TIP3      6414            0.0000000000
     41493      6606  TIP3      H1              5.3905708465       35.2012108952      -33.1976852309  TIP3      6414            0.0000000000
     41494      6606  TIP3      H2              6.3637485542       36.3175277047      -32.9564967773  TIP3      6414            0.0000000000
     41495      6607  TIP3      OH2            11.5982586290       22.3433616441      -33.4182502995  TIP3      6415            0.0000000000
     41496      6607  TIP3      H1             10.9240196170       21.7004267018      -33.1407010866  TIP3      6415            0.0000000000
     41497      6607  TIP3      H2             12.1521928614       21.8119888265      -34.0022495760  TIP3      6415            0.0000000000
     41498      6608  TIP3      OH2            16.7351124417       20.3927048251      -33.3439309183  TIP3      6416            0.0000000000
     41499      6608  TIP3      H1             17.3488491517       20.9816775603      -33.8532363255  TIP3      6416            0.0000000000
     41500      6608  TIP3      H2             15.8539207416       20.7508999425      -33.5789768215  TIP3      6416            0.0000000000
     41501      6609  TIP3      OH2            18.4040122975       21.6335889071      -35.0622553521  TIP3      6417            0.0000000000
     41502      6609  TIP3      H1             19.0903057036       21.0622901201      -35.4852598838  TIP3      6417            0.0000000000
     41503      6609  TIP3      H2             18.9062240111       22.4746396336      -34.9659532440  TIP3      6417            0.0000000000
     41504      6610  TIP3      OH2             3.9666089052       20.9681018783      -35.5659738386  TIP3      6418            0.0000000000
     41505      6610  TIP3      H1              3.1721188561       20.7661347545      -36.0977778380  TIP3      6418            0.0000000000
     41506      6610  TIP3      H2              4.4326915773       20.1127564877      -35.6231168066  TIP3      6418            0.0000000000
     41507      6611  TIP3      OH2             2.7165103682       20.7235726082      -39.8429985920  TIP3      6419            0.0000000000
     41508      6611  TIP3      H1              3.2200489163       21.3638607034      -40.3893317073  TIP3      6419            0.0000000000
     41509      6611  TIP3      H2              2.1680293510       21.3050639992      -39.2932417269  TIP3      6419            0.0000000000
     41510      6612  TIP3      OH2             8.4473588680       20.8924126710      -35.7829815272  TIP3      6420            0.0000000000
     41511      6612  TIP3      H1              9.3463698852       21.2559828245      -35.8486133309  TIP3      6420            0.0000000000
     41512      6612  TIP3      H2              8.4028608451       20.6762311965      -34.8529426171  TIP3      6420            0.0000000000
     41513      6613  TIP3      OH2            14.1451149133       20.9154115704      -34.1529978635  TIP3      6421            0.0000000000
     41514      6613  TIP3      H1             14.1100513758       21.0186768999      -35.1114885426  TIP3      6421            0.0000000000
     41515      6613  TIP3      H2             13.7726128535       20.0082278436      -34.0276241730  TIP3      6421            0.0000000000
     41516      6614  TIP3      OH2            15.4254504545       20.9404614706      -38.4954516966  TIP3      6422            0.0000000000
     41517      6614  TIP3      H1             14.6829178603       21.5406615727      -38.6546195173  TIP3      6422            0.0000000000
     41518      6614  TIP3      H2             14.9793105503       20.0869003873      -38.2792648458  TIP3      6422            0.0000000000
     41519      6615  TIP3      OH2             4.5654776047       22.5901212270      -41.3103548190  TIP3      6423            0.0000000000
     41520      6615  TIP3      H1              5.1117932206       22.0379148418      -41.8666399459  TIP3      6423            0.0000000000
     41521      6615  TIP3      H2              5.2259416210       23.0026140362      -40.7242022504  TIP3      6423            0.0000000000
     41522      6616  TIP3      OH2             9.6007474334       22.9148807836      -38.9301103411  TIP3      6424            0.0000000000
     41523      6616  TIP3      H1              9.8549572409       22.3353598755      -38.1942816142  TIP3      6424            0.0000000000
     41524      6616  TIP3      H2              9.6564948751       23.7782945032      -38.4576557262  TIP3      6424            0.0000000000
     41525      6617  TIP3      OH2             3.8593156362       21.5027334343      -26.1200095133  TIP3      6425            0.0000000000
     41526      6617  TIP3      H1              3.4776154232       20.7294097570      -25.6793355624  TIP3      6425            0.0000000000
     41527      6617  TIP3      H2              4.7655118167       21.4903391908      -25.7340969868  TIP3      6425            0.0000000000
     41528      6618  TIP3      OH2             5.8724550665       20.8637496726      -24.5097625807  TIP3      6426            0.0000000000
     41529      6618  TIP3      H1              6.7705992697       20.5545680194      -24.7548324728  TIP3      6426            0.0000000000
     41530      6618  TIP3      H2              5.5381408456       20.0659703329      -24.0961716667  TIP3      6426            0.0000000000
     41531      6619  TIP3      OH2            14.2875017583       20.2051670112      -24.3820555801  TIP3      6427            0.0000000000
     41532      6619  TIP3      H1             14.2821757247       19.6926335532      -23.5519876497  TIP3      6427            0.0000000000
     41533      6619  TIP3      H2             15.1825931000       20.1443613023      -24.7188957412  TIP3      6427            0.0000000000
     41534      6620  TIP3      OH2            17.3547064016      -36.8602411113      -25.5828661891  TIP3      6428            0.0000000000
     41535      6620  TIP3      H1             16.6516390409      -36.9680780363      -26.2250153114  TIP3      6428            0.0000000000
     41536      6620  TIP3      H2             17.4159962440      -35.8926196513      -25.4856224718  TIP3      6428            0.0000000000
     41537      6621  TIP3      OH2            31.8873444801       30.0921881027      -35.6933779156  TIP3      6429            0.0000000000
     41538      6621  TIP3      H1             31.9307324508       31.0726080792      -35.7459542292  TIP3      6429            0.0000000000
     41539      6621  TIP3      H2             31.1860005540       29.8673766515      -36.3215171983  TIP3      6429            0.0000000000
     41540      6622  TIP3      OH2            30.7280494631       29.3810021164      -32.2043829059  TIP3      6430            0.0000000000
     41541      6622  TIP3      H1             30.7687304331       28.7137121130      -31.5025227313  TIP3      6430            0.0000000000
     41542      6622  TIP3      H2             30.4712389160       28.8540547083      -32.9770747522  TIP3      6430            0.0000000000
     41543      6623  TIP3      OH2            23.1240291328       29.0340167613      -30.6564066121  TIP3      6431            0.0000000000
     41544      6623  TIP3      H1             23.2061675698       28.3524621255      -29.9560172478  TIP3      6431            0.0000000000
     41545      6623  TIP3      H2             23.8708993510       29.6085855657      -30.4360188685  TIP3      6431            0.0000000000
     41546      6624  TIP3      OH2            34.4255203455       32.3320731361      -33.9515175361  TIP3      6432            0.0000000000
     41547      6624  TIP3      H1             34.1009536360       31.5787340358      -33.4455228205  TIP3      6432            0.0000000000
     41548      6624  TIP3      H2             34.5072439270       33.0104661159      -33.2627398891  TIP3      6432            0.0000000000
     41549      6625  TIP3      OH2            24.0660099286       33.4857926561      -32.1202187665  TIP3      6433            0.0000000000
     41550      6625  TIP3      H1             23.7313425269       32.6334105779      -32.4677821520  TIP3      6433            0.0000000000
     41551      6625  TIP3      H2             25.0183675549       33.2925628339      -32.1135000875  TIP3      6433            0.0000000000
     41552      6626  TIP3      OH2            20.6889522821       27.0460290407      -36.6687133155  TIP3      6434            0.0000000000
     41553      6626  TIP3      H1             20.2529419737       27.9176938110      -36.7260673090  TIP3      6434            0.0000000000
     41554      6626  TIP3      H2             20.1251867597       26.5102151738      -37.2439562063  TIP3      6434            0.0000000000
     41555      6627  TIP3      OH2            21.3971648691       29.2686769837      -34.5265839241  TIP3      6435            0.0000000000
     41556      6627  TIP3      H1             21.6668462876       28.4513865427      -34.0680534930  TIP3      6435            0.0000000000
     41557      6627  TIP3      H2             22.1005476850       29.3710747933      -35.1856826231  TIP3      6435            0.0000000000
     41558      6628  TIP3      OH2            29.1287326703       31.7540605292      -31.7352274164  TIP3      6436            0.0000000000
     41559      6628  TIP3      H1             29.4850826300       31.1298893387      -32.3915354521  TIP3      6436            0.0000000000
     41560      6628  TIP3      H2             29.9378139100       31.9396043559      -31.2289918928  TIP3      6436            0.0000000000
     41561      6629  TIP3      OH2            32.1922780451       26.1791656751      -31.4062506276  TIP3      6437            0.0000000000
     41562      6629  TIP3      H1             32.5014661541       25.2656845222      -31.4577924101  TIP3      6437            0.0000000000
     41563      6629  TIP3      H2             32.2668747976       26.4093078823      -32.3601932652  TIP3      6437            0.0000000000
     41564      6630  TIP3      OH2            25.4286695188       24.3196657713      -34.2078107529  TIP3      6438            0.0000000000
     41565      6630  TIP3      H1             25.5302251520       25.1572501464      -34.6959922241  TIP3      6438            0.0000000000
     41566      6630  TIP3      H2             25.0255012265       23.7467956826      -34.8960067214  TIP3      6438            0.0000000000
     41567      6631  TIP3      OH2            33.2019251172       24.3991470223      -35.8477668193  TIP3      6439            0.0000000000
     41568      6631  TIP3      H1             33.8396253559       24.1196505615      -35.1512216783  TIP3      6439            0.0000000000
     41569      6631  TIP3      H2             33.7483792675       25.0053378509      -36.3684784346  TIP3      6439            0.0000000000
     41570      6632  TIP3      OH2            22.0529599854       26.7280833938      -33.4730798750  TIP3      6440            0.0000000000
     41571      6632  TIP3      H1             22.7242934724       26.1807487505      -33.0228487589  TIP3      6440            0.0000000000
     41572      6632  TIP3      H2             22.1533377268       26.4171679914      -34.3858855441  TIP3      6440            0.0000000000
     41573      6633  TIP3      OH2            27.2109610824       28.2859674438      -34.1650803310  TIP3      6441            0.0000000000
     41574      6633  TIP3      H1             27.8786511302       27.7061681880      -33.7586473607  TIP3      6441            0.0000000000
     41575      6633  TIP3      H2             26.6913661257       27.6250470579      -34.6628615135  TIP3      6441            0.0000000000
     41576      6634  TIP3      OH2            24.3281759411       23.2183823425      -30.1663318929  TIP3      6442            0.0000000000
     41577      6634  TIP3      H1             24.0516436336       23.7875717595      -30.9149502138  TIP3      6442            0.0000000000
     41578      6634  TIP3      H2             23.6511761820       23.4506022186      -29.4866378590  TIP3      6442            0.0000000000
     41579      6635  TIP3      OH2            31.6275525886       32.6868989811      -36.6261932382  TIP3      6443            0.0000000000
     41580      6635  TIP3      H1             31.3579957852       32.4303549220      -37.5188610125  TIP3      6443            0.0000000000
     41581      6635  TIP3      H2             31.3127526989       33.6122338817      -36.5691524774  TIP3      6443            0.0000000000
     41582      6636  TIP3      OH2            26.8481316860       30.8482338598      -29.9105965961  TIP3      6444            0.0000000000
     41583      6636  TIP3      H1             26.1398568440       31.4929017097      -29.7117720652  TIP3      6444            0.0000000000
     41584      6636  TIP3      H2             27.5551406606       31.4404500297      -30.2121062480  TIP3      6444            0.0000000000
     41585      6637  TIP3      OH2            34.7058107221       23.6393360321      -33.7462209254  TIP3      6445            0.0000000000
     41586      6637  TIP3      H1             34.6673837522       22.9058591144      -33.1402424233  TIP3      6445            0.0000000000
     41587      6637  TIP3      H2             35.4202294243       24.1792345653      -33.3228639690  TIP3      6445            0.0000000000
     41588      6638  TIP3      OH2            23.8955727411       25.0798179564      -32.1424006358  TIP3      6446            0.0000000000
     41589      6638  TIP3      H1             24.5269296623       25.7635948345      -31.8229991515  TIP3      6446            0.0000000000
     41590      6638  TIP3      H2             24.4196148441       24.6624960731      -32.8712704029  TIP3      6446            0.0000000000
     41591      6639  TIP3      OH2            25.2943509353       32.8745752167      -29.0993524176  TIP3      6447            0.0000000000
     41592      6639  TIP3      H1             25.2442989023       33.7572096956      -29.4927071779  TIP3      6447            0.0000000000
     41593      6639  TIP3      H2             24.4062292170       32.7780548689      -28.6868665579  TIP3      6447            0.0000000000
     41594      6640  TIP3      OH2            21.3518491603       32.5300329501      -38.3127313508  TIP3      6448            0.0000000000
     41595      6640  TIP3      H1             21.1311964612       32.8346948251      -39.2151684088  TIP3      6448            0.0000000000
     41596      6640  TIP3      H2             21.4360462867       33.3646699975      -37.8077726019  TIP3      6448            0.0000000000
     41597      6641  TIP3      OH2            34.7911006973       34.1111920198      -31.4198129726  TIP3      6449            0.0000000000
     41598      6641  TIP3      H1             33.8271116246       34.2798220549      -31.4001897291  TIP3      6449            0.0000000000
     41599      6641  TIP3      H2             35.2042348812       34.9314613229      -31.7651279468  TIP3      6449            0.0000000000
     41600      6642  TIP3      OH2            35.1152364483       22.5394977253      -30.4451830561  TIP3      6450            0.0000000000
     41601      6642  TIP3      H1             34.4333822636       23.2192150336      -30.2611003645  TIP3      6450            0.0000000000
     41602      6642  TIP3      H2             35.8861098741       23.0472047013      -30.7136911111  TIP3      6450            0.0000000000
     41603      6643  TIP3      OH2            28.2804391508       20.5503215148      -32.7052425020  TIP3      6451            0.0000000000
     41604      6643  TIP3      H1             28.1451624972       19.5851743885      -32.7721129047  TIP3      6451            0.0000000000
     41605      6643  TIP3      H2             27.4018546467       20.8570872222      -32.4004878212  TIP3      6451            0.0000000000
     41606      6644  TIP3      OH2            33.2912091624       35.6470801836      -35.1504126459  TIP3      6452            0.0000000000
     41607      6644  TIP3      H1             33.8499359692       35.0202674510      -35.6442444708  TIP3      6452            0.0000000000
     41608      6644  TIP3      H2             33.6657467028       36.4968698334      -35.3781568372  TIP3      6452            0.0000000000
     41609      6645  TIP3      OH2            34.4860945206       33.7932669905      -36.4844740445  TIP3      6453            0.0000000000
     41610      6645  TIP3      H1             34.1525946271       33.1074208959      -37.0677560065  TIP3      6453            0.0000000000
     41611      6645  TIP3      H2             34.5018193838       33.3273272172      -35.6171729427  TIP3      6453            0.0000000000
     41612      6646  TIP3      OH2            35.8181716785       32.5977397470      -27.8472684089  TIP3      6454            0.0000000000
     41613      6646  TIP3      H1             36.0964005906       31.8937500577      -28.4680446591  TIP3      6454            0.0000000000
     41614      6646  TIP3      H2             36.2686444875       33.3403051566      -28.2896754176  TIP3      6454            0.0000000000
     41615      6647  TIP3      OH2            30.5643378814       29.3472503159      -38.2014241354  TIP3      6455            0.0000000000
     41616      6647  TIP3      H1             29.8719551117       29.9220300155      -38.5866782990  TIP3      6455            0.0000000000
     41617      6647  TIP3      H2             31.2739685316       29.4371202526      -38.8630810433  TIP3      6455            0.0000000000
     41618      6648  TIP3      OH2            30.6241275762       27.8687285866      -41.1173553976  TIP3      6456            0.0000000000
     41619      6648  TIP3      H1             31.3541146728       27.8751730048      -40.4780190970  TIP3      6456            0.0000000000
     41620      6648  TIP3      H2             30.9534866423       27.2314809578      -41.7582918317  TIP3      6456            0.0000000000
     41621      6649  TIP3      OH2            33.9634232404       29.6011569577      -37.3129455616  TIP3      6457            0.0000000000
     41622      6649  TIP3      H1             33.2585527090       29.8175033622      -36.6603521881  TIP3      6457            0.0000000000
     41623      6649  TIP3      H2             34.4484398848       28.9318630593      -36.7738870320  TIP3      6457            0.0000000000
     41624      6650  TIP3      OH2            33.9523294337       27.7355425467      -28.1715376797  TIP3      6458            0.0000000000
     41625      6650  TIP3      H1             33.9025724496       28.5406435754      -27.6275045992  TIP3      6458            0.0000000000
     41626      6650  TIP3      H2             33.3288830672       28.0050002047      -28.8763993129  TIP3      6458            0.0000000000
     41627      6651  TIP3      OH2            25.6281601495       30.2148646029      -35.3566850496  TIP3      6459            0.0000000000
     41628      6651  TIP3      H1             25.3073711061       29.8232056211      -36.2040786280  TIP3      6459            0.0000000000
     41629      6651  TIP3      H2             26.2420003896       29.5233131311      -35.0217582095  TIP3      6459            0.0000000000
     41630      6652  TIP3      OH2            26.9499231799       33.6190320463      -32.6747964794  TIP3      6460            0.0000000000
     41631      6652  TIP3      H1             26.9451153506       33.0735642835      -33.4708161281  TIP3      6460            0.0000000000
     41632      6652  TIP3      H2             27.7249268083       33.2523535288      -32.2080718615  TIP3      6460            0.0000000000
     41633      6653  TIP3      OH2            25.9595511442       28.9591690124      -31.7004522951  TIP3      6461            0.0000000000
     41634      6653  TIP3      H1             26.5170160666       29.0650517335      -32.4962559940  TIP3      6461            0.0000000000
     41635      6653  TIP3      H2             26.3390249578       29.6216879524      -31.0846065519  TIP3      6461            0.0000000000
     41636      6654  TIP3      OH2            32.3159745802       34.5295430348      -30.9933911730  TIP3      6462            0.0000000000
     41637      6654  TIP3      H1             32.0651766064       35.1546159408      -30.3275536872  TIP3      6462            0.0000000000
     41638      6654  TIP3      H2             32.0987770015       33.6610622262      -30.5709819599  TIP3      6462            0.0000000000
     41639      6655  TIP3      OH2            26.8919602537       33.3880947828      -26.9749543427  TIP3      6463            0.0000000000
     41640      6655  TIP3      H1             26.4972569947       34.1585162430      -26.5244872154  TIP3      6463            0.0000000000
     41641      6655  TIP3      H2             26.2486965408       33.1646545315      -27.6972885825  TIP3      6463            0.0000000000
     41642      6656  TIP3      OH2            32.8976718668       28.7174921472      -39.5956592578  TIP3      6464            0.0000000000
     41643      6656  TIP3      H1             33.4331049585       28.9502809972      -38.7947334634  TIP3      6464            0.0000000000
     41644      6656  TIP3      H2             33.2726077255       29.2836705829      -40.2940042120  TIP3      6464            0.0000000000
     41645      6657  TIP3      OH2            23.8461281885       29.5795049467      -27.8444562737  TIP3      6465            0.0000000000
     41646      6657  TIP3      H1             23.8926770345       30.2145859411      -27.1061288543  TIP3      6465            0.0000000000
     41647      6657  TIP3      H2             22.9058487335       29.6515790583      -28.0648145314  TIP3      6465            0.0000000000
     41648      6658  TIP3      OH2            30.5533918017       35.4464570080      -36.1020876316  TIP3      6466            0.0000000000
     41649      6658  TIP3      H1             31.0864999229       35.7874886133      -35.3760239073  TIP3      6466            0.0000000000
     41650      6658  TIP3      H2             30.0628995902       36.2189717187      -36.3978994370  TIP3      6466            0.0000000000
     41651      6659  TIP3      OH2            25.1210784709       35.3879604877      -26.2894587698  TIP3      6467            0.0000000000
     41652      6659  TIP3      H1             25.1140262015       35.2743470738      -27.2623452971  TIP3      6467            0.0000000000
     41653      6659  TIP3      H2             24.2408039299       35.1581131699      -25.9719343317  TIP3      6467            0.0000000000
     41654      6660  TIP3      OH2            24.5937325826       29.2440566338      -37.7422168320  TIP3      6468            0.0000000000
     41655      6660  TIP3      H1             24.3178599840       30.0185593074      -38.2713816498  TIP3      6468            0.0000000000
     41656      6660  TIP3      H2             23.9429550313       28.5776544576      -37.9739484187  TIP3      6468            0.0000000000
     41657      6661  TIP3      OH2            20.6958718998       31.6837316204      -28.8524915333  TIP3      6469            0.0000000000
     41658      6661  TIP3      H1             20.2492713343       31.5882713069      -29.7155738138  TIP3      6469            0.0000000000
     41659      6661  TIP3      H2             20.7639000921       30.7356484617      -28.6241120942  TIP3      6469            0.0000000000
     41660      6662  TIP3      OH2            20.4748840546       34.3589408290      -32.0349239691  TIP3      6470            0.0000000000
     41661      6662  TIP3      H1             21.4300064976       34.3046308581      -32.1262372751  TIP3      6470            0.0000000000
     41662      6662  TIP3      H2             20.3742222190       35.1923136059      -31.5543956585  TIP3      6470            0.0000000000
     41663      6663  TIP3      OH2            29.6311441907       34.6594375200      -27.5071679168  TIP3      6471            0.0000000000
     41664      6663  TIP3      H1             29.7371655340       35.4768418440      -27.0011874588  TIP3      6471            0.0000000000
     41665      6663  TIP3      H2             28.7726538335       34.2770566090      -27.2420696289  TIP3      6471            0.0000000000
     41666      6664  TIP3      OH2            35.3811808616       26.7497725775      -25.8909675514  TIP3      6472            0.0000000000
     41667      6664  TIP3      H1             35.2990459433       27.0922868136      -26.7854623551  TIP3      6472            0.0000000000
     41668      6664  TIP3      H2             35.8695842094       25.8974547437      -26.0657653203  TIP3      6472            0.0000000000
     41669      6665  TIP3      OH2            22.9341540071       33.0646544331      -27.8580927018  TIP3      6473            0.0000000000
     41670      6665  TIP3      H1             23.1985500476       32.5723985285      -27.0470693848  TIP3      6473            0.0000000000
     41671      6665  TIP3      H2             22.1331609832       32.5662574284      -28.1564491394  TIP3      6473            0.0000000000
     41672      6666  TIP3      OH2            25.6498780207       21.4520623096      -31.9509804943  TIP3      6474            0.0000000000
     41673      6666  TIP3      H1             24.7469409634       21.3320663135      -32.3202376052  TIP3      6474            0.0000000000
     41674      6666  TIP3      H2             25.5245764400       22.2869779713      -31.4718893673  TIP3      6474            0.0000000000
     41675      6667  TIP3      OH2            30.2933298565       21.1242926204      -28.5910973987  TIP3      6475            0.0000000000
     41676      6667  TIP3      H1             30.6864315144       20.7082672944      -27.8035246073  TIP3      6475            0.0000000000
     41677      6667  TIP3      H2             29.3211693792       20.9988040039      -28.4509610267  TIP3      6475            0.0000000000
     41678      6668  TIP3      OH2            33.5344247209       24.9227146755      -27.7282875260  TIP3      6476            0.0000000000
     41679      6668  TIP3      H1             33.0173660617       24.7562642065      -26.9057791310  TIP3      6476            0.0000000000
     41680      6668  TIP3      H2             33.4260129877       25.8727289691      -27.8914784342  TIP3      6476            0.0000000000
     41681      6669  TIP3      OH2            34.4768581359       29.7297877809      -41.8053985216  TIP3      6477            0.0000000000
     41682      6669  TIP3      H1             34.4341369615       29.6407732948      -42.7714825172  TIP3      6477            0.0000000000
     41683      6669  TIP3      H2             35.2339394473       30.3113351998      -41.7071797620  TIP3      6477            0.0000000000
     41684      6670  TIP3      OH2            29.9258335589       23.6963834991      -41.2479673319  TIP3      6478            0.0000000000
     41685      6670  TIP3      H1             29.6221546063       23.6453252715      -40.3249305745  TIP3      6478            0.0000000000
     41686      6670  TIP3      H2             29.6615111787       22.8150534932      -41.5370431454  TIP3      6478            0.0000000000
     41687      6671  TIP3      OH2            25.7479230185       26.4228619926      -30.7078990965  TIP3      6479            0.0000000000
     41688      6671  TIP3      H1             25.0151972928       26.4111708046      -30.0664301921  TIP3      6479            0.0000000000
     41689      6671  TIP3      H2             25.7082099132       27.3357785340      -31.0710068123  TIP3      6479            0.0000000000
     41690      6672  TIP3      OH2            25.7094433411       26.5516002403      -35.8419937441  TIP3      6480            0.0000000000
     41691      6672  TIP3      H1             24.7763626834       26.2907108922      -35.9731869411  TIP3      6480            0.0000000000
     41692      6672  TIP3      H2             26.0942565193       26.2536602828      -36.6891664675  TIP3      6480            0.0000000000
     41693      6673  TIP3      OH2            31.2520842032       27.0422292414      -37.0826405305  TIP3      6481            0.0000000000
     41694      6673  TIP3      H1             30.8265192244       27.8692099422      -37.4052388717  TIP3      6481            0.0000000000
     41695      6673  TIP3      H2             31.9326821021       26.8932367947      -37.7562137052  TIP3      6481            0.0000000000
     41696      6674  TIP3      OH2            30.3296524036       27.2523976180      -25.6255784981  TIP3      6482            0.0000000000
     41697      6674  TIP3      H1             29.7760297865       26.5025592113      -25.3125897098  TIP3      6482            0.0000000000
     41698      6674  TIP3      H2             31.1420356688       27.1215142882      -25.1114155130  TIP3      6482            0.0000000000
     41699      6675  TIP3      OH2            32.1273341287       26.5053139446      -34.2443662637  TIP3      6483            0.0000000000
     41700      6675  TIP3      H1             32.0247420358       27.1076902709      -34.9916928929  TIP3      6483            0.0000000000
     41701      6675  TIP3      H2             32.3732901872       25.6793819348      -34.6920159514  TIP3      6483            0.0000000000
     41702      6676  TIP3      OH2            23.3744808629       26.6880063664      -29.0075518018  TIP3      6484            0.0000000000
     41703      6676  TIP3      H1             23.4479858683       27.0862048271      -28.1237971028  TIP3      6484            0.0000000000
     41704      6676  TIP3      H2             22.9333991037       25.8458316905      -28.8133781889  TIP3      6484            0.0000000000
     41705      6677  TIP3      OH2            26.9212309491       24.2957586955      -41.8474697236  TIP3      6485            0.0000000000
     41706      6677  TIP3      H1             26.3762901235       23.6657694588      -41.3309029908  TIP3      6485            0.0000000000
     41707      6677  TIP3      H2             26.3091308713       24.6529471232      -42.4900754616  TIP3      6485            0.0000000000
     41708      6678  TIP3      OH2            20.0341739460       23.7950497594      -35.0406037783  TIP3      6486            0.0000000000
     41709      6678  TIP3      H1             20.7136710385       23.7574965724      -34.3377460393  TIP3      6486            0.0000000000
     41710      6678  TIP3      H2             20.4858379709       23.4122547954      -35.8158769293  TIP3      6486            0.0000000000
     41711      6679  TIP3      OH2            21.3299459418       24.5203498588      -39.6687743767  TIP3      6487            0.0000000000
     41712      6679  TIP3      H1             21.8146155386       25.1157431366      -40.2766517683  TIP3      6487            0.0000000000
     41713      6679  TIP3      H2             20.6357393521       25.1370085721      -39.3502415339  TIP3      6487            0.0000000000
     41714      6680  TIP3      OH2            31.4673885520       28.1204249193      -29.6674281204  TIP3      6488            0.0000000000
     41715      6680  TIP3      H1             31.8571157093       27.4382483622      -30.2614967874  TIP3      6488            0.0000000000
     41716      6680  TIP3      H2             31.0018471500       27.5865903840      -28.9962834174  TIP3      6488            0.0000000000
     41717      6681  TIP3      OH2            28.2614541329       24.0956131534      -34.8294228723  TIP3      6489            0.0000000000
     41718      6681  TIP3      H1             27.3253966154       24.1045648877      -34.5287998499  TIP3      6489            0.0000000000
     41719      6681  TIP3      H2             28.7555462928       23.9348547947      -34.0100108139  TIP3      6489            0.0000000000
     41720      6682  TIP3      OH2            23.0803941138       25.6526277558      -35.9631665190  TIP3      6490            0.0000000000
     41721      6682  TIP3      H1             22.1945342174       25.8015947183      -36.3527003560  TIP3      6490            0.0000000000
     41722      6682  TIP3      H2             23.3668585018       24.8175913448      -36.3683375901  TIP3      6490            0.0000000000
     41723      6683  TIP3      OH2            26.7214416833       25.7125350729      -38.3294678969  TIP3      6491            0.0000000000
     41724      6683  TIP3      H1             27.6807950659       25.8137020207      -38.1584284980  TIP3      6491            0.0000000000
     41725      6683  TIP3      H2             26.4932608427       26.3634616706      -39.0152608988  TIP3      6491            0.0000000000
     41726      6684  TIP3      OH2            32.6287576236       23.2829913022      -31.5888561866  TIP3      6492            0.0000000000
     41727      6684  TIP3      H1             31.9609158838       23.3881930895      -30.8804784632  TIP3      6492            0.0000000000
     41728      6684  TIP3      H2             32.1099018253       23.1081288051      -32.3867754424  TIP3      6492            0.0000000000
     41729      6685  TIP3      OH2            25.4179530906       26.8692249780      -40.7382121525  TIP3      6493            0.0000000000
     41730      6685  TIP3      H1             24.8643938941       26.5191545785      -41.4583545437  TIP3      6493            0.0000000000
     41731      6685  TIP3      H2             26.2449301492       27.0846780719      -41.1992008778  TIP3      6493            0.0000000000
     41732      6686  TIP3      OH2            23.5597803458       31.5215951275      -25.7095394385  TIP3      6494            0.0000000000
     41733      6686  TIP3      H1             24.2668517176       31.6858878054      -25.0683345855  TIP3      6494            0.0000000000
     41734      6686  TIP3      H2             22.7769519575       31.5382377478      -25.1088653337  TIP3      6494            0.0000000000
     41735      6687  TIP3      OH2            29.5419022752       26.8492894265      -32.9450099687  TIP3      6495            0.0000000000
     41736      6687  TIP3      H1             30.1657838336       26.3260608686      -33.4701005424  TIP3      6495            0.0000000000
     41737      6687  TIP3      H2             29.4175663312       26.3087733046      -32.1533655831  TIP3      6495            0.0000000000
     41738      6688  TIP3      OH2            24.5639349356       22.9975896139      -36.4912239290  TIP3      6496            0.0000000000
     41739      6688  TIP3      H1             24.2551487331       22.0745399793      -36.5161279448  TIP3      6496            0.0000000000
     41740      6688  TIP3      H2             25.3510455226       22.9396445822      -37.0518891589  TIP3      6496            0.0000000000
     41741      6689  TIP3      OH2            28.1913490628       25.1812553397      -30.5234598091  TIP3      6497            0.0000000000
     41742      6689  TIP3      H1             27.3674502507       25.6992872900      -30.4318594269  TIP3      6497            0.0000000000
     41743      6689  TIP3      H2             28.7468169355       25.5309010974      -29.7981357794  TIP3      6497            0.0000000000
     41744      6690  TIP3      OH2            28.7873443995       31.3915766272      -38.8056682553  TIP3      6498            0.0000000000
     41745      6690  TIP3      H1             27.9855880107       30.9352705621      -39.1453500656  TIP3      6498            0.0000000000
     41746      6690  TIP3      H2             28.5654464714       31.5044419120      -37.8628321291  TIP3      6498            0.0000000000
     41747      6691  TIP3      OH2            35.6464245509       30.6241722161      -30.0067374814  TIP3      6499            0.0000000000
     41748      6691  TIP3      H1             36.3903233780       30.7564076022      -30.6574921785  TIP3      6499            0.0000000000
     41749      6691  TIP3      H2             34.9057297961       30.6251854015      -30.6393258583  TIP3      6499            0.0000000000
     41750      6692  TIP3      OH2            32.6559533220       24.1973545656      -40.6154403133  TIP3      6500            0.0000000000
     41751      6692  TIP3      H1             31.7102992518       24.3325704650      -40.8100801327  TIP3      6500            0.0000000000
     41752      6692  TIP3      H2             32.9355203706       25.0872970110      -40.3323355316  TIP3      6500            0.0000000000
     41753      6693  TIP3      OH2            30.2610160459       31.6780833339      -27.5971157759  TIP3      6501            0.0000000000
     41754      6693  TIP3      H1             29.9311010298       31.2476966700      -26.7923231972  TIP3      6501            0.0000000000
     41755      6693  TIP3      H2             30.0483310849       32.6064434952      -27.4855613418  TIP3      6501            0.0000000000
     41756      6694  TIP3      OH2            33.3635403572       26.1489992811      -39.0185430093  TIP3      6502            0.0000000000
     41757      6694  TIP3      H1             34.2334317349       26.0279680506      -38.5863616606  TIP3      6502            0.0000000000
     41758      6694  TIP3      H2             33.4358754971       26.9883473373      -39.4933397430  TIP3      6502            0.0000000000
     41759      6695  TIP3      OH2            23.8850991898       30.7921557181      -33.0265285462  TIP3      6503            0.0000000000
     41760      6695  TIP3      H1             24.5824400434       30.7266896699      -33.7087445643  TIP3      6503            0.0000000000
     41761      6695  TIP3      H2             23.9516723333       29.9338172211      -32.5724827943  TIP3      6503            0.0000000000
     41762      6696  TIP3      OH2            30.8656032237       32.8740590822      -39.7952029531  TIP3      6504            0.0000000000
     41763      6696  TIP3      H1             30.5350230989       33.7165509059      -39.4290541223  TIP3      6504            0.0000000000
     41764      6696  TIP3      H2             30.1322033851       32.2619391298      -39.5850152045  TIP3      6504            0.0000000000
     41765      6697  TIP3      OH2            20.8811705463       29.2083439987      -27.7693711692  TIP3      6505            0.0000000000
     41766      6697  TIP3      H1             21.0565169212       28.7768796227      -26.9111389108  TIP3      6505            0.0000000000
     41767      6697  TIP3      H2             20.2623002345       28.5861006919      -28.1932424792  TIP3      6505            0.0000000000
     41768      6698  TIP3      OH2            27.8772602385       28.7884806001      -25.6102974239  TIP3      6506            0.0000000000
     41769      6698  TIP3      H1             27.6022775810       28.4545118214      -26.4736432750  TIP3      6506            0.0000000000
     41770      6698  TIP3      H2             28.7916600918       28.4459458117      -25.5203806495  TIP3      6506            0.0000000000
     41771      6699  TIP3      OH2            32.5687140185       34.1394898580      -27.6887184128  TIP3      6507            0.0000000000
     41772      6699  TIP3      H1             31.6350341675       34.2318655875      -27.8908704086  TIP3      6507            0.0000000000
     41773      6699  TIP3      H2             32.5404056250       34.3430652810      -26.7272337222  TIP3      6507            0.0000000000
     41774      6700  TIP3      OH2            33.6725612507       29.9142026062      -31.7107046635  TIP3      6508            0.0000000000
     41775      6700  TIP3      H1             32.7507654266       29.6662228464      -31.8760298193  TIP3      6508            0.0000000000
     41776      6700  TIP3      H2             34.1644052730       29.1831451755      -32.1513410953  TIP3      6508            0.0000000000
     41777      6701  TIP3      OH2            26.2954309151       34.2222543769      -35.7222921695  TIP3      6509            0.0000000000
     41778      6701  TIP3      H1             26.7660387586       35.0584963177      -35.8170412682  TIP3      6509            0.0000000000
     41779      6701  TIP3      H2             25.3845056960       34.4587731066      -35.9332151309  TIP3      6509            0.0000000000
     41780      6702  TIP3      OH2            21.9921083475       29.1116948053      -41.1073311116  TIP3      6510            0.0000000000
     41781      6702  TIP3      H1             22.6171309504       29.7369775248      -40.6940844331  TIP3      6510            0.0000000000
     41782      6702  TIP3      H2             21.1240364830       29.3987117538      -40.7775187310  TIP3      6510            0.0000000000
     41783      6703  TIP3      OH2            27.7036462136       31.9069453033      -36.1055940617  TIP3      6511            0.0000000000
     41784      6703  TIP3      H1             27.3892674972       32.8304159850      -36.0395272332  TIP3      6511            0.0000000000
     41785      6703  TIP3      H2             26.9590267088       31.4362722613      -35.6834777005  TIP3      6511            0.0000000000
     41786      6704  TIP3      OH2            28.4109923138       35.7990722478      -30.0049312191  TIP3      6512            0.0000000000
     41787      6704  TIP3      H1             28.5716820432       36.7483892074      -30.0906021823  TIP3      6512            0.0000000000
     41788      6704  TIP3      H2             28.7394093448       35.6525672773      -29.1079306088  TIP3      6512            0.0000000000
     41789      6705  TIP3      OH2            31.6985045677       32.1263357338      -30.0736181293  TIP3      6513            0.0000000000
     41790      6705  TIP3      H1             31.3105768760       31.8833561728      -29.2108417758  TIP3      6513            0.0000000000
     41791      6705  TIP3      H2             32.2989321490       31.3903119729      -30.2722687760  TIP3      6513            0.0000000000
     41792      6706  TIP3      OH2            33.9673763814       33.0872005887      -41.0023247919  TIP3      6514            0.0000000000
     41793      6706  TIP3      H1             34.2787201465       32.7171778070      -40.1504477966  TIP3      6514            0.0000000000
     41794      6706  TIP3      H2             33.0013349318       32.9875492189      -40.9160928325  TIP3      6514            0.0000000000
     41795      6707  TIP3      OH2            22.5346444281       23.9503375912      -28.1766752985  TIP3      6515            0.0000000000
     41796      6707  TIP3      H1             21.6231126862       24.2835580921      -28.2529898251  TIP3      6515            0.0000000000
     41797      6707  TIP3      H2             22.4070278092       23.0761868458      -27.7757632486  TIP3      6515            0.0000000000
     41798      6708  TIP3      OH2            34.8111459366       31.7189887090      -38.8128195859  TIP3      6516            0.0000000000
     41799      6708  TIP3      H1             34.5385652974       30.9953251289      -38.2038860381  TIP3      6516            0.0000000000
     41800      6708  TIP3      H2             35.7142754249       31.9122875418      -38.5081278114  TIP3      6516            0.0000000000
     41801      6709  TIP3      OH2            22.1255825519       35.6859457001      -29.7839774720  TIP3      6517            0.0000000000
     41802      6709  TIP3      H1             22.4290299357       34.7706299031      -29.7960240676  TIP3      6517            0.0000000000
     41803      6709  TIP3      H2             22.3840105597       36.0293004456      -28.9436145941  TIP3      6517            0.0000000000
     41804      6710  TIP3      OH2            26.9012902660       33.7752910961      -40.1038331279  TIP3      6518            0.0000000000
     41805      6710  TIP3      H1             27.1377709808       33.2302414194      -39.3430054769  TIP3      6518            0.0000000000
     41806      6710  TIP3      H2             26.9911126681       34.6809043949      -39.7576881998  TIP3      6518            0.0000000000
     41807      6711  TIP3      OH2            23.3807920139       31.0458509966      -39.6238839672  TIP3      6519            0.0000000000
     41808      6711  TIP3      H1             22.7216397070       31.4418653474      -39.0163534263  TIP3      6519            0.0000000000
     41809      6711  TIP3      H2             23.9446840716       31.8098153869      -39.8458134306  TIP3      6519            0.0000000000
     41810      6712  TIP3      OH2            31.2307049915       23.6967223623      -29.2446161434  TIP3      6520            0.0000000000
     41811      6712  TIP3      H1             31.9787539170       23.7682580542      -28.6394874823  TIP3      6520            0.0000000000
     41812      6712  TIP3      H2             30.8631708660       22.8173830590      -29.0524260701  TIP3      6520            0.0000000000
     41813      6713  TIP3      OH2            32.0747814575       23.2502608382      -38.1642067380  TIP3      6521            0.0000000000
     41814      6713  TIP3      H1             32.2646414709       23.7656965576      -38.9754370381  TIP3      6521            0.0000000000
     41815      6713  TIP3      H2             32.5813749479       23.7549505197      -37.5191470399  TIP3      6521            0.0000000000
     41816      6714  TIP3      OH2            29.7154935044       35.4625472150      -39.3051108810  TIP3      6522            0.0000000000
     41817      6714  TIP3      H1             28.8737175633       35.9412390147      -39.2894251453  TIP3      6522            0.0000000000
     41818      6714  TIP3      H2             30.2412355389       35.9450347273      -39.9788748857  TIP3      6522            0.0000000000
     41819      6715  TIP3      OH2            29.2354743073       25.0349834994      -37.3582794436  TIP3      6523            0.0000000000
     41820      6715  TIP3      H1             30.0255158906       25.6109533961      -37.3206448229  TIP3      6523            0.0000000000
     41821      6715  TIP3      H2             28.9654295640       24.9139656256      -36.4297318798  TIP3      6523            0.0000000000
     41822      6716  TIP3      OH2            29.8100455088       26.0623901107      -28.1685000501  TIP3      6524            0.0000000000
     41823      6716  TIP3      H1             29.8872515407       26.6234442442      -27.3692404786  TIP3      6524            0.0000000000
     41824      6716  TIP3      H2             30.4592081621       25.3559301753      -28.0543563988  TIP3      6524            0.0000000000
     41825      6717  TIP3      OH2            30.0493353087       22.1042679578      -36.4845193396  TIP3      6525            0.0000000000
     41826      6717  TIP3      H1             29.7693834147       22.7515624448      -35.8184373109  TIP3      6525            0.0000000000
     41827      6717  TIP3      H2             30.7578934479       22.6366725180      -36.9245556905  TIP3      6525            0.0000000000
     41828      6718  TIP3      OH2            27.0901500541      -36.5305880835      -39.3527073033  TIP3      6526            0.0000000000
     41829      6718  TIP3      H1             27.2074294551      -35.6978925755      -39.8201452404  TIP3      6526            0.0000000000
     41830      6718  TIP3      H2             26.8522077481      -36.2057148539      -38.4644888418  TIP3      6526            0.0000000000
     41831      6719  TIP3      OH2            25.7518830142       23.1774762150      -39.7125537231  TIP3      6527            0.0000000000
     41832      6719  TIP3      H1             25.6874861167       24.0962838065      -39.3820246623  TIP3      6527            0.0000000000
     41833      6719  TIP3      H2             26.6689205684       22.9597867827      -39.4586443854  TIP3      6527            0.0000000000
     41834      6720  TIP3      OH2            35.8533417836       23.7036708953      -27.4987463087  TIP3      6528            0.0000000000
     41835      6720  TIP3      H1             35.0182760054       24.2315325875      -27.4743650844  TIP3      6528            0.0000000000
     41836      6720  TIP3      H2             36.2589158181       23.9888367019      -28.3159482390  TIP3      6528            0.0000000000
     41837      6721  TIP3      OH2            34.1042565946       27.4426275779      -32.8063069182  TIP3      6529            0.0000000000
     41838      6721  TIP3      H1             33.7151965293       27.1714628114      -33.6522587032  TIP3      6529            0.0000000000
     41839      6721  TIP3      H2             34.9855291191       27.0511195311      -32.8490198489  TIP3      6529            0.0000000000
     41840      6722  TIP3      OH2            24.0044650249       33.6187356462      -40.6701554270  TIP3      6530            0.0000000000
     41841      6722  TIP3      H1             24.6411257982       34.2914937827      -40.4263270163  TIP3      6530            0.0000000000
     41842      6722  TIP3      H2             24.4938398878       33.2029355274      -41.4068550278  TIP3      6530            0.0000000000
     41843      6723  TIP3      OH2            22.3714613364       26.3114808019      -41.5103815247  TIP3      6531            0.0000000000
     41844      6723  TIP3      H1             22.3387140765       27.2773533651      -41.3963111256  TIP3      6531            0.0000000000
     41845      6723  TIP3      H2             21.4991036943       26.1125351732      -41.8715676293  TIP3      6531            0.0000000000
     41846      6724  TIP3      OH2            23.1403589775       21.0967138296      -32.8310006084  TIP3      6532            0.0000000000
     41847      6724  TIP3      H1             22.9395629841       21.1171566152      -33.7933911366  TIP3      6532            0.0000000000
     41848      6724  TIP3      H2             22.7202875048       20.2486862417      -32.5764256576  TIP3      6532            0.0000000000
     41849      6725  TIP3      OH2            22.1088233151       35.0216706334      -36.7206817800  TIP3      6533            0.0000000000
     41850      6725  TIP3      H1             21.2423987001       35.4506061674      -36.7155054868  TIP3      6533            0.0000000000
     41851      6725  TIP3      H2             22.5998819198       35.5118970146      -37.3880105834  TIP3      6533            0.0000000000
     41852      6726  TIP3      OH2            26.1835742173       36.1443479590      -23.6090330162  TIP3      6534            0.0000000000
     41853      6726  TIP3      H1             27.1013591332       35.9068019761      -23.4393849151  TIP3      6534            0.0000000000
     41854      6726  TIP3      H2             26.1809382980       36.1283013898      -24.5861407996  TIP3      6534            0.0000000000
     41855      6727  TIP3      OH2            30.3952662919       36.2868061961      -41.7309572364  TIP3      6535            0.0000000000
     41856      6727  TIP3      H1             29.6016134950       35.7433318692      -41.8801284062  TIP3      6535            0.0000000000
     41857      6727  TIP3      H2             30.9104466870       35.8203047225      -42.4114815741  TIP3      6535            0.0000000000
     41858      6728  TIP3      OH2            32.5546101595       34.6454177109      -25.1485959923  TIP3      6536            0.0000000000
     41859      6728  TIP3      H1             32.1341983540       33.9298130348      -24.6830304055  TIP3      6536            0.0000000000
     41860      6728  TIP3      H2             33.2070126068       34.9989230303      -24.5136382956  TIP3      6536            0.0000000000
     41861      6729  TIP3      OH2            34.6704448912       35.8723826964      -42.1506602328  TIP3      6537            0.0000000000
     41862      6729  TIP3      H1             34.8590240410       35.0507061074      -41.6527260253  TIP3      6537            0.0000000000
     41863      6729  TIP3      H2             35.4457670294       35.9595865495      -42.6319992680  TIP3      6537            0.0000000000
     41864      6730  TIP3      OH2            21.2513237983       31.4424237844      -24.4586304461  TIP3      6538            0.0000000000
     41865      6730  TIP3      H1             21.3703770246       30.5208145535      -24.7421622895  TIP3      6538            0.0000000000
     41866      6730  TIP3      H2             20.4637707018       31.7207194397      -24.9543255704  TIP3      6538            0.0000000000
     41867      6731  TIP3      OH2            25.6495920484       31.8392364676      -42.2342894683  TIP3      6539            0.0000000000
     41868      6731  TIP3      H1             25.7059666439       31.0037745472      -41.7699019651  TIP3      6539            0.0000000000
     41869      6731  TIP3      H2             26.2080497557       31.6364386068      -43.0110651637  TIP3      6539            0.0000000000
     41870      6732  TIP3      OH2            27.9527728606       31.4480509972      -25.0499357784  TIP3      6540            0.0000000000
     41871      6732  TIP3      H1             27.5823719376       31.7151621988      -25.9058086256  TIP3      6540            0.0000000000
     41872      6732  TIP3      H2             28.0217277305       30.4526082189      -25.1092884489  TIP3      6540            0.0000000000
     41873      6733  TIP3      OH2            33.6192952027       31.2638065354      -27.6075643731  TIP3      6541            0.0000000000
     41874      6733  TIP3      H1             34.4003243491       31.8676393906      -27.7058504736  TIP3      6541            0.0000000000
     41875      6733  TIP3      H2             32.9248916449       31.9312204276      -27.5790472253  TIP3      6541            0.0000000000
     41876      6734  TIP3      OH2            22.0886848049       28.6944474393      -25.0379971868  TIP3      6542            0.0000000000
     41877      6734  TIP3      H1             22.5251702646       27.8458506001      -25.1457386784  TIP3      6542            0.0000000000
     41878      6734  TIP3      H2             21.8747952070       28.6919253874      -24.0873878119  TIP3      6542            0.0000000000
     41879      6735  TIP3      OH2            26.7809735530       29.8215075457      -39.9633472171  TIP3      6543            0.0000000000
     41880      6735  TIP3      H1             26.2728795340       29.2895446455      -39.3297756800  TIP3      6543            0.0000000000
     41881      6735  TIP3      H2             27.0746465054       29.1275532463      -40.6015300718  TIP3      6543            0.0000000000
     41882      6736  TIP3      OH2            26.0204871742       27.6150885679      -27.6687679238  TIP3      6544            0.0000000000
     41883      6736  TIP3      H1             25.4415179057       28.3470719584      -27.4013347881  TIP3      6544            0.0000000000
     41884      6736  TIP3      H2             26.4182506158       27.9776748219      -28.4804772039  TIP3      6544            0.0000000000
     41885      6737  TIP3      OH2            27.8457836968       28.0417494532      -41.7584231706  TIP3      6545            0.0000000000
     41886      6737  TIP3      H1             27.7299307239       27.8460062568      -42.6982146282  TIP3      6545            0.0000000000
     41887      6737  TIP3      H2             28.8240158791       28.1130949793      -41.6575893624  TIP3      6545            0.0000000000
     41888      6738  TIP3      OH2            31.1297439030       30.1840082637      -24.3292017693  TIP3      6546            0.0000000000
     41889      6738  TIP3      H1             32.0775227160       30.1600707717      -24.4389689959  TIP3      6546            0.0000000000
     41890      6738  TIP3      H2             30.9011599064       29.4359072708      -23.7512483182  TIP3      6546            0.0000000000
     41891      6739  TIP3      OH2            26.4095920315       24.9991645154      -26.5890898114  TIP3      6547            0.0000000000
     41892      6739  TIP3      H1             26.5513970806       24.2865836087      -27.2431812296  TIP3      6547            0.0000000000
     41893      6739  TIP3      H2             26.3965808831       25.8015299633      -27.1526517824  TIP3      6547            0.0000000000
     41894      6740  TIP3      OH2            26.8355739663       23.3736342455      -29.0554007830  TIP3      6548            0.0000000000
     41895      6740  TIP3      H1             27.3479844928       23.8362969489      -29.7606664528  TIP3      6548            0.0000000000
     41896      6740  TIP3      H2             25.9448401367       23.2906181720      -29.4665362140  TIP3      6548            0.0000000000
     41897      6741  TIP3      OH2            28.3745714572       28.8472235087      -28.8120538441  TIP3      6549            0.0000000000
     41898      6741  TIP3      H1             29.1335414500       28.6904165165      -29.3839370455  TIP3      6549            0.0000000000
     41899      6741  TIP3      H2             28.0193579192       29.6898443372      -29.1373884290  TIP3      6549            0.0000000000
     41900      6742  TIP3      OH2            32.7824137788       26.6248935203      -23.8438604498  TIP3      6550            0.0000000000
     41901      6742  TIP3      H1             32.9794730462       25.6866322123      -23.9778546081  TIP3      6550            0.0000000000
     41902      6742  TIP3      H2             33.6486512726       27.0457335064      -23.9239434568  TIP3      6550            0.0000000000
     41903      6743  TIP3      OH2            34.1430860796       29.4425544577      -25.6931622998  TIP3      6551            0.0000000000
     41904      6743  TIP3      H1             33.8463179148       30.1349419536      -26.3261560642  TIP3      6551            0.0000000000
     41905      6743  TIP3      H2             35.0752987002       29.3506700255      -25.8991039744  TIP3      6551            0.0000000000
     41906      6744  TIP3      OH2            24.8505832279       26.2039427391      -24.6386901852  TIP3      6552            0.0000000000
     41907      6744  TIP3      H1             24.1184891747       25.6337414718      -24.9195212129  TIP3      6552            0.0000000000
     41908      6744  TIP3      H2             25.5490257783       25.9137322292      -25.2641471797  TIP3      6552            0.0000000000
     41909      6745  TIP3      OH2            27.6241326834       20.8119065987      -28.6565656659  TIP3      6553            0.0000000000
     41910      6745  TIP3      H1             27.4504510597       21.7749477670      -28.7626315206  TIP3      6553            0.0000000000
     41911      6745  TIP3      H2             26.8728836208       20.4421903802      -29.1532686910  TIP3      6553            0.0000000000
     41912      6746  TIP3      OH2            28.9157457053       25.0610615837      -25.0830450039  TIP3      6554            0.0000000000
     41913      6746  TIP3      H1             28.6054752732       24.9210539143      -24.1715695795  TIP3      6554            0.0000000000
     41914      6746  TIP3      H2             28.0919733169       24.9572349208      -25.5848761330  TIP3      6554            0.0000000000
     41915      6747  TIP3      OH2            31.5836956424       24.2683327380      -25.9896400670  TIP3      6555            0.0000000000
     41916      6747  TIP3      H1             30.6239133931       24.3233660669      -25.8375632890  TIP3      6555            0.0000000000
     41917      6747  TIP3      H2             31.8947107597       23.6496888626      -25.3076716727  TIP3      6555            0.0000000000
     41918      6748  TIP3      OH2            33.2623620917       22.8930026409      -24.0120622524  TIP3      6556            0.0000000000
     41919      6748  TIP3      H1             33.1134983168       21.9341470358      -24.0490570669  TIP3      6556            0.0000000000
     41920      6748  TIP3      H2             32.9300437772       23.1905905898      -23.1324298263  TIP3      6556            0.0000000000
     41921      6749  TIP3      OH2            22.9915069732       24.1632547536      -24.9162402874  TIP3      6557            0.0000000000
     41922      6749  TIP3      H1             23.2328909546       23.4503424917      -25.5468761500  TIP3      6557            0.0000000000
     41923      6749  TIP3      H2             22.8883133067       23.6716810497      -24.0991561314  TIP3      6557            0.0000000000
     41924      6750  TIP3      OH2            27.8217772002       20.1766499658      -25.9629551348  TIP3      6558            0.0000000000
     41925      6750  TIP3      H1             28.5198967435       19.4885296877      -25.9867598929  TIP3      6558            0.0000000000
     41926      6750  TIP3      H2             27.7143195804       20.3482286158      -26.9186733898  TIP3      6558            0.0000000000
     41927      6751  TIP3      OH2            28.1825419198       21.7882422675      -23.8526338219  TIP3      6559            0.0000000000
     41928      6751  TIP3      H1             28.0566081019       21.3074284392      -24.7085646755  TIP3      6559            0.0000000000
     41929      6751  TIP3      H2             27.6324847781       22.5815782077      -23.9868344186  TIP3      6559            0.0000000000
     41930      6752  TIP3      OH2            21.2706392780       33.3017319692      -41.2062358552  TIP3      6560            0.0000000000
     41931      6752  TIP3      H1             22.2191770275       33.4355593473      -40.9896844255  TIP3      6560            0.0000000000
     41932      6752  TIP3      H2             21.3097921471       32.7093476481      -41.9625526271  TIP3      6560            0.0000000000
     41933      6753  TIP3      OH2            36.2479878683       34.8628186022      -29.1366888114  TIP3      6561            0.0000000000
     41934      6753  TIP3      H1             35.5730982825       35.3115979646      -28.6386422474  TIP3      6561            0.0000000000
     41935      6753  TIP3      H2             35.7808400101       34.5094634391      -29.9297188035  TIP3      6561            0.0000000000
     41936      6754  TIP3      OH2            35.1423740369       27.6278490892      -36.1258160051  TIP3      6562            0.0000000000
     41937      6754  TIP3      H1             35.6521428176       26.8533039350      -35.8859063980  TIP3      6562            0.0000000000
     41938      6754  TIP3      H2             35.3737202071       28.1146154688      -35.2798460068  TIP3      6562            0.0000000000
     41939      6755  TIP3      OH2            20.8843429743       29.9048497972      -31.8727985145  TIP3      6563            0.0000000000
     41940      6755  TIP3      H1             21.0663232758       29.8135600155      -32.8357079739  TIP3      6563            0.0000000000
     41941      6755  TIP3      H2             21.7788969743       29.7268849700      -31.5175586258  TIP3      6563            0.0000000000
     41942      6756  TIP3      OH2            35.7635390960       23.8881346497      -42.3079069515  TIP3      6564            0.0000000000
     41943      6756  TIP3      H1             36.4874275836       23.4129855525      -41.8647082400  TIP3      6564            0.0000000000
     41944      6756  TIP3      H2             35.0017909409       23.3138066994      -42.2104755148  TIP3      6564            0.0000000000
     41945      6757  TIP3      OH2            35.5430063506       25.3106126441      -37.6220305377  TIP3      6565            0.0000000000
     41946      6757  TIP3      H1             35.8488368384       24.4734570099      -37.2530640718  TIP3      6565            0.0000000000
     41947      6757  TIP3      H2             36.3486710208       25.7264756835      -37.9467263593  TIP3      6565            0.0000000000
     41948      6758  TIP3      OH2           -37.0203142557       25.0899893486      -32.0669414277  TIP3      6566            0.0000000000
     41949      6758  TIP3      H1            -36.1552165373       25.5114381160      -32.1763789774  TIP3      6566            0.0000000000
     41950      6758  TIP3      H2            -37.2548319188       25.7633308299      -31.3958577216  TIP3      6566            0.0000000000
     41951      6759  TIP3      OH2            36.2726781427       26.7236942091      -28.9728955992  TIP3      6567            0.0000000000
     41952      6759  TIP3      H1             35.3327451565       26.9875612047      -28.9321272399  TIP3      6567            0.0000000000
     41953      6759  TIP3      H2             36.6325657516       27.4045485826      -29.5816496063  TIP3      6567            0.0000000000
     41954      6760  TIP3      OH2            20.4932105498       25.2084030736      -25.7256389558  TIP3      6568            0.0000000000
     41955      6760  TIP3      H1             21.4264330227       24.9852907894      -25.5452474647  TIP3      6568            0.0000000000
     41956      6760  TIP3      H2             20.0357177121       24.3897089707      -25.4323514291  TIP3      6568            0.0000000000
     41957      6761  TIP3      OH2            35.3278830621       22.3169036446      -36.7599506619  TIP3      6569            0.0000000000
     41958      6761  TIP3      H1             36.3023004184       22.3825046606      -36.7225102704  TIP3      6569            0.0000000000
     41959      6761  TIP3      H2             35.3118672196       21.9983910926      -37.6934684562  TIP3      6569            0.0000000000
     41960      6762  TIP3      OH2            21.6993827515       23.4869690085      -32.8698570923  TIP3      6570            0.0000000000
     41961      6762  TIP3      H1             22.1644783955       22.6642548623      -32.6104182251  TIP3      6570            0.0000000000
     41962      6762  TIP3      H2             22.2452834637       24.1814287185      -32.4776641384  TIP3      6570            0.0000000000
     41963      6763  TIP3      OH2            19.9873073752       26.4856429183      -31.8337486244  TIP3      6571            0.0000000000
     41964      6763  TIP3      H1             20.5549435424       26.2407286609      -32.5934108834  TIP3      6571            0.0000000000
     41965      6763  TIP3      H2             20.4442404161       27.2960788794      -31.5632130119  TIP3      6571            0.0000000000
     41966      6764  TIP3      OH2            20.3486320583       22.7438018966      -37.7700991069  TIP3      6572            0.0000000000
     41967      6764  TIP3      H1             19.4068858188       22.9374588982      -37.8903307009  TIP3      6572            0.0000000000
     41968      6764  TIP3      H2             20.7671637342       23.2435391531      -38.4925905520  TIP3      6572            0.0000000000
     41969      6765  TIP3      OH2            20.2993985724       21.4194961572      -29.4682918606  TIP3      6573            0.0000000000
     41970      6765  TIP3      H1             19.6328455653       21.2161405077      -28.7859305401  TIP3      6573            0.0000000000
     41971      6765  TIP3      H2             19.8361811312       22.0873747530      -30.0081562455  TIP3      6573            0.0000000000
     41972      6766  TIP3      OH2            22.4915761319       34.6779679071      -25.2550631243  TIP3      6574            0.0000000000
     41973      6766  TIP3      H1             21.6072397133       34.6206681896      -25.6708858059  TIP3      6574            0.0000000000
     41974      6766  TIP3      H2             22.2545451607       34.4641236860      -24.3384719764  TIP3      6574            0.0000000000
     41975      6767  TIP3      OH2            25.4606616978       35.6095818169      -28.9426423654  TIP3      6575            0.0000000000
     41976      6767  TIP3      H1             25.0529484746       36.3898550345      -29.3427222608  TIP3      6575            0.0000000000
     41977      6767  TIP3      H2             26.3303387445       35.5805004803      -29.3795273531  TIP3      6575            0.0000000000
     41978      6768  TIP3      OH2            24.6331809785       35.9624607530      -33.6486369951  TIP3      6576            0.0000000000
     41979      6768  TIP3      H1             24.2449883462       35.1996956447      -33.1941160188  TIP3      6576            0.0000000000
     41980      6768  TIP3      H2             25.2193033442       36.3180385866      -32.9566547681  TIP3      6576            0.0000000000
     41981      6769  TIP3      OH2            30.4372342886       22.3452802992      -33.4108951596  TIP3      6577            0.0000000000
     41982      6769  TIP3      H1             29.7705348628       21.6964750102      -33.1365427485  TIP3      6577            0.0000000000
     41983      6769  TIP3      H2             30.9891621206       21.8217400483      -34.0008189879  TIP3      6577            0.0000000000
     41984      6770  TIP3      OH2            35.5892810913       20.3419479945      -33.3858652698  TIP3      6578            0.0000000000
     41985      6770  TIP3      H1             36.1835233752       21.0815362296      -33.5045539026  TIP3      6578            0.0000000000
     41986      6770  TIP3      H2             34.6749872421       20.7268582559      -33.4865522769  TIP3      6578            0.0000000000
     41987      6771  TIP3      OH2            22.8225333573       20.9677118975      -35.5652407917  TIP3      6579            0.0000000000
     41988      6771  TIP3      H1             22.0282519944       20.7662518255      -36.0976389745  TIP3      6579            0.0000000000
     41989      6771  TIP3      H2             23.2889680972       20.1126429784      -35.6234100554  TIP3      6579            0.0000000000
     41990      6772  TIP3      OH2            21.5730481219       20.7237587033      -39.8409093786  TIP3      6580            0.0000000000
     41991      6772  TIP3      H1             22.0755749827       21.3635377695      -40.3888426181  TIP3      6580            0.0000000000
     41992      6772  TIP3      H2             21.0232294701       21.3058117298      -39.2929736623  TIP3      6580            0.0000000000
     41993      6773  TIP3      OH2            27.3053551510       20.8915878745      -35.7837610029  TIP3      6581            0.0000000000
     41994      6773  TIP3      H1             28.2022776541       21.2567557848      -35.8501428872  TIP3      6581            0.0000000000
     41995      6773  TIP3      H2             27.2560664212       20.6744778932      -34.8547133678  TIP3      6581            0.0000000000
     41996      6774  TIP3      OH2            33.0896518130       20.8520037546      -34.1784818584  TIP3      6582            0.0000000000
     41997      6774  TIP3      H1             32.9169452262       21.0508333092      -35.1068998347  TIP3      6582            0.0000000000
     41998      6774  TIP3      H2             32.5958208262       20.0048631483      -34.0340215163  TIP3      6582            0.0000000000
     41999      6775  TIP3      OH2            34.2606146957       20.8672879319      -38.5872002523  TIP3      6583            0.0000000000
     42000      6775  TIP3      H1             33.5442455767       21.5207861142      -38.6672228368  TIP3      6583            0.0000000000
     42001      6775  TIP3      H2             33.7727595576       20.0601052671      -38.3220568073  TIP3      6583            0.0000000000
     42002      6776  TIP3      OH2            23.4214806013       22.5893369742      -41.3099481502  TIP3      6584            0.0000000000
     42003      6776  TIP3      H1             23.9676714137       22.0382935061      -41.8674661658  TIP3      6584            0.0000000000
     42004      6776  TIP3      H2             24.0824282758       23.0020832637      -40.7245022935  TIP3      6584            0.0000000000
     42005      6777  TIP3      OH2            28.4577765624       22.9159477818      -38.9294919487  TIP3      6585            0.0000000000
     42006      6777  TIP3      H1             28.7106824121       22.3353191577      -38.1933730907  TIP3      6585            0.0000000000
     42007      6777  TIP3      H2             28.5120576776       23.7786541736      -38.4569662634  TIP3      6585            0.0000000000
     42008      6778  TIP3      OH2            22.7019961872       21.5367159813      -26.0748123110  TIP3      6586            0.0000000000
     42009      6778  TIP3      H1             22.3155001994       20.7204874464      -25.7121429947  TIP3      6586            0.0000000000
     42010      6778  TIP3      H2             23.6291749136       21.4505746614      -25.7547487149  TIP3      6586            0.0000000000
     42011      6779  TIP3      OH2            24.7318120399       20.8706882367      -24.5208134606  TIP3      6587            0.0000000000
     42012      6779  TIP3      H1             25.6317427032       20.5609520893      -24.7294212732  TIP3      6587            0.0000000000
     42013      6779  TIP3      H2             24.3905784651       20.1069200492      -24.0622147522  TIP3      6587            0.0000000000
     42014      6780  TIP3      OH2            33.1475091831       20.1748577199      -24.3507298386  TIP3      6588            0.0000000000
     42015      6780  TIP3      H1             33.2500376608       19.7892413126      -23.4913853397  TIP3      6588            0.0000000000
     42016      6780  TIP3      H2             34.0552278673       20.2115632597      -24.7357023799  TIP3      6588            0.0000000000
     42017      6781  TIP3      OH2            36.2551408638      -36.8222582365      -25.5798897066  TIP3      6589            0.0000000000
     42018      6781  TIP3      H1             35.5413865563      -36.9898199809      -26.2014618167  TIP3      6589            0.0000000000
     42019      6781  TIP3      H2             36.2477112480      -35.8545433837      -25.5030715709  TIP3      6589            0.0000000000
     42020      6782  TIP3      OH2           -25.9381629304      -28.7194229193      -22.3559206143  TIP3      6590            0.0000000000
     42021      6782  TIP3      H1            -25.2440736443      -28.6526775479      -21.6740132528  TIP3      6590            0.0000000000
     42022      6782  TIP3      H2            -25.5494129429      -29.3710913886      -22.9516606123  TIP3      6590            0.0000000000
     42023      6783  TIP3      OH2           -23.6974524391      -27.8141612748      -20.7330754761  TIP3      6591            0.0000000000
     42024      6783  TIP3      H1            -23.1123695935      -27.7028326847      -19.9728702457  TIP3      6591            0.0000000000
     42025      6783  TIP3      H2            -23.2440451738      -27.3623440209      -21.4666780523  TIP3      6591            0.0000000000
     42026      6784  TIP3      OH2           -19.7298354196      -35.9235112195      -20.7629532755  TIP3      6592            0.0000000000
     42027      6784  TIP3      H1            -20.6726673304      -35.9321604141      -20.5522938100  TIP3      6592            0.0000000000
     42028      6784  TIP3      H2            -19.6525598546      -35.1159723290      -21.2914746793  TIP3      6592            0.0000000000
     42029      6785  TIP3      OH2           -18.8316928029      -21.7048256949      -22.5656691738  TIP3      6593            0.0000000000
     42030      6785  TIP3      H1            -18.6993421382      -20.7777709714      -22.3203899149  TIP3      6593            0.0000000000
     42031      6785  TIP3      H2            -17.9196661676      -22.0496232392      -22.4960791897  TIP3      6593            0.0000000000
     42032      6786  TIP3      OH2           -22.2348906115      -26.7644105220      -23.0070107622  TIP3      6594            0.0000000000
     42033      6786  TIP3      H1            -22.2069878672      -27.0024383157      -23.9625927456  TIP3      6594            0.0000000000
     42034      6786  TIP3      H2            -21.3651752686      -26.3452111851      -22.8969742756  TIP3      6594            0.0000000000
     42035      6787  TIP3      OH2           -26.6589175586      -32.8963371730      -22.4334339208  TIP3      6595            0.0000000000
     42036      6787  TIP3      H1            -26.9032247796      -32.9176642903      -21.5064903133  TIP3      6595            0.0000000000
     42037      6787  TIP3      H2            -26.9416310303      -33.7875650674      -22.7215919486  TIP3      6595            0.0000000000
     42038      6788  TIP3      OH2           -29.7930486828      -32.4755714991      -23.2889060763  TIP3      6596            0.0000000000
     42039      6788  TIP3      H1            -30.2650002028      -32.9184719859      -22.5883817056  TIP3      6596            0.0000000000
     42040      6788  TIP3      H2            -30.4975510511      -32.0592648597      -23.8118799322  TIP3      6596            0.0000000000
     42041      6789  TIP3      OH2           -34.6595839704      -32.4727490670      -20.8470149118  TIP3      6597            0.0000000000
     42042      6789  TIP3      H1            -34.6439112101      -31.6304237489      -21.3335454295  TIP3      6597            0.0000000000
     42043      6789  TIP3      H2            -35.5051221689      -32.2016335725      -20.4126150294  TIP3      6597            0.0000000000
     42044      6790  TIP3      OH2           -23.9651130705      -32.3319839538      -21.7431932859  TIP3      6598            0.0000000000
     42045      6790  TIP3      H1            -24.9109869490      -32.2043473554      -21.9250554935  TIP3      6598            0.0000000000
     42046      6790  TIP3      H2            -23.6057942528      -31.4830079735      -21.4546506176  TIP3      6598            0.0000000000
     42047      6791  TIP3      OH2           -22.5850488859      -23.4666365404      -22.1631142400  TIP3      6599            0.0000000000
     42048      6791  TIP3      H1            -22.2508962431      -23.8334090548      -21.3380530943  TIP3      6599            0.0000000000
     42049      6791  TIP3      H2            -23.5390038362      -23.5803386355      -22.0660885978  TIP3      6599            0.0000000000
     42050      6792  TIP3      OH2           -18.1300010542      -19.0176930309      -21.8860454391  TIP3      6600            0.0000000000
     42051      6792  TIP3      H1            -17.4171388458      -18.4050941735      -22.1107597495  TIP3      6600            0.0000000000
     42052      6792  TIP3      H2            -18.8486134339      -18.4339325249      -21.6264021125  TIP3      6600            0.0000000000
     42053      6793  TIP3      OH2           -28.5257196635      -22.3520564929      -23.6982156750  TIP3      6601            0.0000000000
     42054      6793  TIP3      H1            -28.3528445410      -23.1262186244      -24.2552626739  TIP3      6601            0.0000000000
     42055      6793  TIP3      H2            -28.8060504934      -22.7584375753      -22.8743846401  TIP3      6601            0.0000000000
     42056      6794  TIP3      OH2           -29.5412706850      -20.1069144478      -20.6863751908  TIP3      6602            0.0000000000
     42057      6794  TIP3      H1            -29.3415907796      -19.2591992185      -21.1085907636  TIP3      6602            0.0000000000
     42058      6794  TIP3      H2            -29.6261408607      -19.8017614126      -19.7806704710  TIP3      6602            0.0000000000
     42059      6795  TIP3      OH2           -34.2262541265      -30.2160845024      -22.9148574351  TIP3      6603            0.0000000000
     42060      6795  TIP3      H1            -34.2761449212      -29.3936772820      -22.4237110746  TIP3      6603            0.0000000000
     42061      6795  TIP3      H2            -35.1511368299      -30.5208375047      -22.9071327898  TIP3      6603            0.0000000000
     42062      6796  TIP3      OH2           -26.4778986962      -20.4657752627      -23.5738584475  TIP3      6604            0.0000000000
     42063      6796  TIP3      H1            -27.1335914992      -21.1299060357      -23.2696394316  TIP3      6604            0.0000000000
     42064      6796  TIP3      H2            -25.7281118881      -21.0398980459      -23.7600618737  TIP3      6604            0.0000000000
     42065      6797  TIP3      OH2           -21.9242035061      -20.7286738848      -23.3507344003  TIP3      6605            0.0000000000
     42066      6797  TIP3      H1            -21.5825305644      -21.4855723158      -22.8543504607  TIP3      6605            0.0000000000
     42067      6797  TIP3      H2            -21.1682433933      -20.4746654520      -23.8985868755  TIP3      6605            0.0000000000
     42068      6798  TIP3      OH2           -25.5681546225      -23.6849995311      -23.7263217598  TIP3      6606            0.0000000000
     42069      6798  TIP3      H1            -25.9031333269      -23.5689497305      -22.8378368419  TIP3      6606            0.0000000000
     42070      6798  TIP3      H2            -25.7616791552      -24.6377275197      -23.8844784013  TIP3      6606            0.0000000000
     42071      6799  TIP3      OH2           -28.7474094489      -28.6077179125      -22.8912155268  TIP3      6607            0.0000000000
     42072      6799  TIP3      H1            -28.8894861934      -28.6784921756      -23.8449901456  TIP3      6607            0.0000000000
     42073      6799  TIP3      H2            -27.7901694871      -28.4648518129      -22.7987844755  TIP3      6607            0.0000000000
     42074      6800  TIP3      OH2           -19.3218100961      -26.2413004847      -23.4890324017  TIP3      6608            0.0000000000
     42075      6800  TIP3      H1            -19.6084971824      -26.5955314810      -24.3397536977  TIP3      6608            0.0000000000
     42076      6800  TIP3      H2            -19.3027834655      -25.2697779826      -23.6326751105  TIP3      6608            0.0000000000
     42077      6801  TIP3      OH2           -19.7725901666      -30.1506916431      -22.7403027713  TIP3      6609            0.0000000000
     42078      6801  TIP3      H1            -19.7960913611      -29.4906712304      -23.4366797765  TIP3      6609            0.0000000000
     42079      6801  TIP3      H2            -20.0393132084      -30.9751732314      -23.1968770831  TIP3      6609            0.0000000000
     42080      6802  TIP3      OH2           -20.5768099870      -32.6920874068      -23.5782786996  TIP3      6610            0.0000000000
     42081      6802  TIP3      H1            -19.9803133000      -33.1170463176      -22.9374904724  TIP3      6610            0.0000000000
     42082      6802  TIP3      H2            -21.4235672938      -33.1380074779      -23.4070887620  TIP3      6610            0.0000000000
     42083      6803  TIP3      OH2           -18.5319410770      -33.8627740467      -22.0940485518  TIP3      6611            0.0000000000
     42084      6803  TIP3      H1            -18.0863967402      -34.5965248196      -22.5568681263  TIP3      6611            0.0000000000
     42085      6803  TIP3      H2            -17.8498998080      -33.2050276501      -21.9481912716  TIP3      6611            0.0000000000
     42086      6804  TIP3      OH2           -34.8798217448      -35.8591883442      -21.2093094855  TIP3      6612            0.0000000000
     42087      6804  TIP3      H1            -34.4414611181      -35.0786044822      -21.5195422923  TIP3      6612            0.0000000000
     42088      6804  TIP3      H2            -35.4521343986      -35.4231712157      -20.5200174648  TIP3      6612            0.0000000000
     42089      6805  TIP3      OH2           -33.0393023548      -33.8131478355      -22.5948926358  TIP3      6613            0.0000000000
     42090      6805  TIP3      H1            -32.6077444359      -34.5640574768      -23.0137334512  TIP3      6613            0.0000000000
     42091      6805  TIP3      H2            -32.5667641438      -33.6059459216      -21.7801289394  TIP3      6613            0.0000000000
     42092      6806  TIP3      OH2            -6.9771458646      -28.6481004783      -22.3818870828  TIP3      6614            0.0000000000
     42093      6806  TIP3      H1             -6.3945998245      -28.7606402250      -21.6368843047  TIP3      6614            0.0000000000
     42094      6806  TIP3      H2             -6.7572590974      -29.4141754670      -22.9386147149  TIP3      6614            0.0000000000
     42095      6807  TIP3      OH2           -10.9587424735      -32.5228500199      -23.2896272055  TIP3      6615            0.0000000000
     42096      6807  TIP3      H1            -11.3798159407      -32.9054521045      -22.5366175206  TIP3      6615            0.0000000000
     42097      6807  TIP3      H2            -11.6203915041      -32.0700200492      -23.8272285905  TIP3      6615            0.0000000000
     42098      6808  TIP3      OH2             0.5281611869      -30.2375662066      -20.3963365800  TIP3      6616            0.0000000000
     42099      6808  TIP3      H1             -0.0069005465      -30.6507800720      -21.1132429383  TIP3      6616            0.0000000000
     42100      6808  TIP3      H2              0.5812805105      -29.3296923255      -20.7189452912  TIP3      6616            0.0000000000
     42101      6809  TIP3      OH2            -9.6271577787      -22.3483975532      -23.6316900456  TIP3      6617            0.0000000000
     42102      6809  TIP3      H1             -9.4969079997      -23.0984263485      -24.2383969062  TIP3      6617            0.0000000000
     42103      6809  TIP3      H2            -10.0045314132      -22.7928083683      -22.8747112682  TIP3      6617            0.0000000000
     42104      6810  TIP3      OH2           -13.7334771256      -22.8724523913      -21.8760172520  TIP3      6618            0.0000000000
     42105      6810  TIP3      H1            -13.0654603686      -22.2562962940      -21.5601841206  TIP3      6618            0.0000000000
     42106      6810  TIP3      H2            -13.2200027713      -23.4152901312      -22.5115566060  TIP3      6618            0.0000000000
     42107      6811  TIP3      OH2            -7.6216076373      -20.4794855643      -23.5826719330  TIP3      6619            0.0000000000
     42108      6811  TIP3      H1             -8.2920662134      -21.1211543057      -23.2719128667  TIP3      6619            0.0000000000
     42109      6811  TIP3      H2             -6.8656259912      -21.0590366556      -23.7685524701  TIP3      6619            0.0000000000
     42110      6812  TIP3      OH2           -12.1148642474      -24.7377947319      -23.5176859536  TIP3      6620            0.0000000000
     42111      6812  TIP3      H1            -12.0321398941      -25.5276895794      -22.9464678467  TIP3      6620            0.0000000000
     42112      6812  TIP3      H2            -11.3881843785      -24.9174868440      -24.1376865750  TIP3      6620            0.0000000000
     42113      6813  TIP3      OH2            -6.7571644352      -23.6916723021      -23.7497801419  TIP3      6621            0.0000000000
     42114      6813  TIP3      H1             -7.0006145996      -23.5572441259      -22.8348653755  TIP3      6621            0.0000000000
     42115      6813  TIP3      H2             -6.9377040721      -24.6538304190      -23.8792736992  TIP3      6621            0.0000000000
     42116      6814  TIP3      OH2           -16.4560268541      -23.2069405112      -22.4150664693  TIP3      6622            0.0000000000
     42117      6814  TIP3      H1            -15.5138768251      -23.1449093972      -22.1445658317  TIP3      6622            0.0000000000
     42118      6814  TIP3      H2            -16.4159761376      -23.9298879744      -23.0764909099  TIP3      6622            0.0000000000
     42119      6815  TIP3      OH2            -0.9049939079      -30.1932784067      -22.7171276597  TIP3      6623            0.0000000000
     42120      6815  TIP3      H1             -0.8907752646      -29.5126331082      -23.4052743915  TIP3      6623            0.0000000000
     42121      6815  TIP3      H2             -1.1045510523      -31.0253005172      -23.1839567100  TIP3      6623            0.0000000000
     42122      6816  TIP3      OH2           -15.8433248339      -35.4429074363      -20.8139645971  TIP3      6624            0.0000000000
     42123      6816  TIP3      H1            -15.7009187485      -35.0037612467      -21.6530878992  TIP3      6624            0.0000000000
     42124      6816  TIP3      H2            -16.7324774370      -35.1874358711      -20.5364982214  TIP3      6624            0.0000000000
     42125      6817  TIP3      OH2           -14.2321073886      -33.8787356266      -22.5173036198  TIP3      6625            0.0000000000
     42126      6817  TIP3      H1            -13.7155724755      -34.5165660835      -23.0600158315  TIP3      6625            0.0000000000
     42127      6817  TIP3      H2            -13.6249083803      -33.5994015445      -21.8378464270  TIP3      6625            0.0000000000
     42128      6818  TIP3      OH2           -14.4773183919      -18.9817988933      -23.0655314270  TIP3      6626            0.0000000000
     42129      6818  TIP3      H1            -14.6345368190      -18.7430386042      -22.1519503747  TIP3      6626            0.0000000000
     42130      6818  TIP3      H2            -13.6513834446      -19.5008335093      -22.9230428066  TIP3      6626            0.0000000000
     42131      6819  TIP3      OH2            14.1892588248      -27.9283093084      -20.7336001886  TIP3      6627            0.0000000000
     42132      6819  TIP3      H1             14.5855733928      -27.5338211589      -19.9557923901  TIP3      6627            0.0000000000
     42133      6819  TIP3      H2             14.4199043853      -27.3146063696      -21.4597220884  TIP3      6627            0.0000000000
     42134      6820  TIP3      OH2            15.5712969050      -26.8949791158      -22.9943117439  TIP3      6628            0.0000000000
     42135      6820  TIP3      H1             15.4707886095      -26.9868956297      -23.9740760158  TIP3      6628            0.0000000000
     42136      6820  TIP3      H2             16.2608475423      -26.2327100174      -22.8844828109  TIP3      6628            0.0000000000
     42137      6821  TIP3      OH2             7.9097206402      -32.4758556387      -23.3219273924  TIP3      6629            0.0000000000
     42138      6821  TIP3      H1              7.4847870068      -32.8897491850      -22.5427141794  TIP3      6629            0.0000000000
     42139      6821  TIP3      H2              7.1724843692      -32.1008983313      -23.8110840078  TIP3      6629            0.0000000000
     42140      6822  TIP3      OH2             2.4734022492      -32.0197368200      -20.8233100374  TIP3      6630            0.0000000000
     42141      6822  TIP3      H1              2.9594004433      -31.4416079887      -21.4205294220  TIP3      6630            0.0000000000
     42142      6822  TIP3      H2              1.7504464758      -31.4559943609      -20.5037143591  TIP3      6630            0.0000000000
     42143      6823  TIP3      OH2             6.5559882190      -29.7482383138      -21.8839972752  TIP3      6631            0.0000000000
     42144      6823  TIP3      H1              6.0319884204      -30.1017589051      -22.6207059029  TIP3      6631            0.0000000000
     42145      6823  TIP3      H2              7.3943029900      -29.4714738768      -22.3078397426  TIP3      6631            0.0000000000
     42146      6824  TIP3      OH2            19.5598069885      -19.0518722599      -21.9408594501  TIP3      6632            0.0000000000
     42147      6824  TIP3      H1             20.2864913332      -18.4367382837      -22.0802826911  TIP3      6632            0.0000000000
     42148      6824  TIP3      H2             18.8633706767      -18.4455236319      -21.6068574578  TIP3      6632            0.0000000000
     42149      6825  TIP3      OH2             9.2096339692      -22.3442231889      -23.6628674949  TIP3      6633            0.0000000000
     42150      6825  TIP3      H1              9.3849711249      -23.1077945966      -24.2347191344  TIP3      6633            0.0000000000
     42151      6825  TIP3      H2              8.8745015535      -22.7966151725      -22.8695871282  TIP3      6633            0.0000000000
     42152      6826  TIP3      OH2             8.2132887314      -20.0502971415      -20.5257693392  TIP3      6634            0.0000000000
     42153      6826  TIP3      H1              8.3009186409      -19.2434504221      -21.0415885611  TIP3      6634            0.0000000000
     42154      6826  TIP3      H2              7.9832331975      -19.7455783633      -19.6448763975  TIP3      6634            0.0000000000
     42155      6827  TIP3      OH2             6.9629821751      -33.3118304075      -20.9200722630  TIP3      6635            0.0000000000
     42156      6827  TIP3      H1              6.8749398463      -32.4285637134      -20.5680271991  TIP3      6635            0.0000000000
     42157      6827  TIP3      H2              7.8390796136      -33.5804184558      -20.6329708161  TIP3      6635            0.0000000000
     42158      6828  TIP3      OH2             5.1501953572      -22.9393189668      -21.8833117210  TIP3      6636            0.0000000000
     42159      6828  TIP3      H1              5.7515533776      -22.2706284128      -21.5326892647  TIP3      6636            0.0000000000
     42160      6828  TIP3      H2              5.6969523417      -23.3905304936      -22.5353218032  TIP3      6636            0.0000000000
     42161      6829  TIP3      OH2             3.4822138282      -30.2277069464      -22.7508071931  TIP3      6637            0.0000000000
     42162      6829  TIP3      H1              3.4562579584      -29.3022873011      -22.4874762391  TIP3      6637            0.0000000000
     42163      6829  TIP3      H2              2.5813172638      -30.4908948490      -22.9602318107  TIP3      6637            0.0000000000
     42164      6830  TIP3      OH2            11.2460916704      -20.4738386983      -23.5579718652  TIP3      6638            0.0000000000
     42165      6830  TIP3      H1             10.5519780945      -21.1160222148      -23.2912236964  TIP3      6638            0.0000000000
     42166      6830  TIP3      H2             11.9843072497      -21.0630344473      -23.7761387489  TIP3      6638            0.0000000000
     42167      6831  TIP3      OH2            15.7832191853      -20.7443034644      -23.3963365940  TIP3      6639            0.0000000000
     42168      6831  TIP3      H1             16.0970275373      -21.4798341644      -22.8401046890  TIP3      6639            0.0000000000
     42169      6831  TIP3      H2             16.5660581902      -20.4858364915      -23.9056164598  TIP3      6639            0.0000000000
     42170      6832  TIP3      OH2             6.6750477801      -24.8171245285      -23.5280453432  TIP3      6640            0.0000000000
     42171      6832  TIP3      H1              6.8778790411      -25.5339411460      -22.9075888719  TIP3      6640            0.0000000000
     42172      6832  TIP3      H2              7.4537229793      -24.8952536887      -24.1166470378  TIP3      6640            0.0000000000
     42173      6833  TIP3      OH2            12.1990514675      -23.6842455101      -23.7038659657  TIP3      6641            0.0000000000
     42174      6833  TIP3      H1             11.8188080117      -23.5715063298      -22.8311783049  TIP3      6641            0.0000000000
     42175      6833  TIP3      H2             11.9515221927      -24.6243994681      -23.8706359642  TIP3      6641            0.0000000000
     42176      6834  TIP3      OH2             8.9232881550      -28.5648001230      -22.9139362557  TIP3      6642            0.0000000000
     42177      6834  TIP3      H1              8.8005425094      -28.6648476544      -23.8661448846  TIP3      6642            0.0000000000
     42178      6834  TIP3      H2              9.8837693785      -28.4868970964      -22.8212195536  TIP3      6642            0.0000000000
     42179      6835  TIP3      OH2            17.0486326348      -32.6173057452      -23.5283307916  TIP3      6643            0.0000000000
     42180      6835  TIP3      H1             17.7268834855      -33.0867388967      -23.0101375748  TIP3      6643            0.0000000000
     42181      6835  TIP3      H2             16.2667220222      -33.1810826237      -23.4488228921  TIP3      6643            0.0000000000
     42182      6836  TIP3      OH2             4.7614097377      -33.6233396124      -22.7874683523  TIP3      6644            0.0000000000
     42183      6836  TIP3      H1              5.0731457409      -34.5154602844      -23.0167283746  TIP3      6644            0.0000000000
     42184      6836  TIP3      H2              5.1077248909      -33.6237347211      -21.8711044579  TIP3      6644            0.0000000000
     42185      6837  TIP3      OH2            11.5515824825      -18.6733175483      -21.5925372051  TIP3      6645            0.0000000000
     42186      6837  TIP3      H1             12.3638010453      -18.2423762535      -21.8587711459  TIP3      6645            0.0000000000
     42187      6837  TIP3      H2             11.2652906848      -19.0884659085      -22.4282018165  TIP3      6645            0.0000000000
     42188      6838  TIP3      OH2            34.3296284240      -26.8089241396      -23.0206196626  TIP3      6646            0.0000000000
     42189      6838  TIP3      H1             34.3483314207      -27.0312653735      -23.9717562733  TIP3      6646            0.0000000000
     42190      6838  TIP3      H2             35.1577848602      -26.3643050773      -22.8782858423  TIP3      6646            0.0000000000
     42191      6839  TIP3      OH2            26.7490061724      -32.4104133267      -23.2767569775  TIP3      6647            0.0000000000
     42192      6839  TIP3      H1             26.3653034886      -32.9451187432      -22.5799358981  TIP3      6647            0.0000000000
     42193      6839  TIP3      H2             26.0583545292      -32.1617817530      -23.8950375224  TIP3      6647            0.0000000000
     42194      6840  TIP3      OH2            22.0215170549      -27.4673015411      -22.2028956213  TIP3      6648            0.0000000000
     42195      6840  TIP3      H1             22.6192768227      -26.7976040315      -21.8442505016  TIP3      6648            0.0000000000
     42196      6840  TIP3      H2             21.1638023219      -27.1372713864      -21.9348602196  TIP3      6648            0.0000000000
     42197      6841  TIP3      OH2            34.6176134564      -20.6867112106      -23.3256444517  TIP3      6649            0.0000000000
     42198      6841  TIP3      H1             34.9218429495      -21.4632913680      -22.8427084917  TIP3      6649            0.0000000000
     42199      6841  TIP3      H2             35.3691805642      -20.4886876228      -23.9120340673  TIP3      6649            0.0000000000
     42200      6842  TIP3      OH2            25.5008425905      -24.9126999398      -23.5974109985  TIP3      6650            0.0000000000
     42201      6842  TIP3      H1             25.7571650811      -25.5538677134      -22.9372134877  TIP3      6650            0.0000000000
     42202      6842  TIP3      H2             26.3301846845      -24.8794489464      -24.1184044933  TIP3      6650            0.0000000000
     42203      6843  TIP3      OH2            31.0499653904      -23.6946882563      -23.7549040352  TIP3      6651            0.0000000000
     42204      6843  TIP3      H1             30.7074053261      -23.5468236426      -22.8674530864  TIP3      6651            0.0000000000
     42205      6843  TIP3      H2             30.7821416524      -24.6268389920      -23.8899895652  TIP3      6651            0.0000000000
     42206      6844  TIP3      OH2            35.9157170418      -32.8165810844      -23.6543031732  TIP3      6652            0.0000000000
     42207      6844  TIP3      H1             36.5239669805      -33.0533559374      -22.9369160346  TIP3      6652            0.0000000000
     42208      6844  TIP3      H2             35.0922204427      -33.1616638532      -23.3109622738  TIP3      6652            0.0000000000
     42209      6845  TIP3      OH2           -18.8631565954       -2.8438997940      -22.6514338341  TIP3      6653            0.0000000000
     42210      6845  TIP3      H1            -18.7339495021       -1.9575120673      -22.2676617632  TIP3      6653            0.0000000000
     42211      6845  TIP3      H2            -17.9584259384       -3.1651112620      -22.4787035586  TIP3      6653            0.0000000000
     42212      6846  TIP3      OH2           -35.2868492766      -13.1573134155      -20.8674596590  TIP3      6654            0.0000000000
     42213      6846  TIP3      H1            -34.7463679743      -12.5427669646      -21.3877054095  TIP3      6654            0.0000000000
     42214      6846  TIP3      H2            -35.9712287731      -12.6183984526      -20.4335389991  TIP3      6654            0.0000000000
     42215      6847  TIP3      OH2           -34.5694508149       -8.6037785106      -22.2137404814  TIP3      6655            0.0000000000
     42216      6847  TIP3      H1            -33.9647547138       -7.9885723163      -21.7868848047  TIP3      6655            0.0000000000
     42217      6847  TIP3      H2            -35.4332240400       -8.2873479014      -21.9446473254  TIP3      6655            0.0000000000
     42218      6848  TIP3      OH2           -18.1387024687       -0.1525330305      -22.0340298325  TIP3      6656            0.0000000000
     42219      6848  TIP3      H1            -17.3779033715        0.4407808921      -22.0408903326  TIP3      6656            0.0000000000
     42220      6848  TIP3      H2            -18.8259732481        0.3650448230      -21.5506950966  TIP3      6656            0.0000000000
     42221      6849  TIP3      OH2           -28.4650270255       -3.4916008001      -23.6646261233  TIP3      6657            0.0000000000
     42222      6849  TIP3      H1            -28.3788014646       -4.2490717399      -24.2606019894  TIP3      6657            0.0000000000
     42223      6849  TIP3      H2            -28.8374795018       -3.8883559069      -22.8753286077  TIP3      6657            0.0000000000
     42224      6850  TIP3      OH2           -32.6273088349       -3.9591250120      -21.9754638705  TIP3      6658            0.0000000000
     42225      6850  TIP3      H1            -32.0075571155       -3.3911630091      -21.4773538745  TIP3      6658            0.0000000000
     42226      6850  TIP3      H2            -32.0514029912       -4.4543467760      -22.5434710091  TIP3      6658            0.0000000000
     42227      6851  TIP3      OH2           -34.2432662938      -11.4108719754      -22.7331748263  TIP3      6659            0.0000000000
     42228      6851  TIP3      H1            -34.2693101937      -10.4661196799      -22.5287778242  TIP3      6659            0.0000000000
     42229      6851  TIP3      H2            -35.1289301711      -11.6422762244      -23.0303326103  TIP3      6659            0.0000000000
     42230      6852  TIP3      OH2           -21.9335777809       -1.8398793457      -23.3873196836  TIP3      6660            0.0000000000
     42231      6852  TIP3      H1            -21.5829885552       -2.5501765657      -22.8356844673  TIP3      6660            0.0000000000
     42232      6852  TIP3      H2            -21.1417606341       -1.5981517019      -23.8864202308  TIP3      6660            0.0000000000
     42233      6853  TIP3      OH2           -19.1765346984       -7.3492761943      -23.5533249801  TIP3      6661            0.0000000000
     42234      6853  TIP3      H1            -19.6508236525       -7.7448339636      -24.2923338342  TIP3      6661            0.0000000000
     42235      6853  TIP3      H2            -19.3520060142       -6.3986204698      -23.6153897279  TIP3      6661            0.0000000000
     42236      6854  TIP3      OH2           -28.7984564398        0.9035589125      -21.9378464779  TIP3      6662            0.0000000000
     42237      6854  TIP3      H1            -27.9019417866        1.1856460915      -21.7014452561  TIP3      6662            0.0000000000
     42238      6854  TIP3      H2            -29.0586671413        1.6364794703      -22.4975530660  TIP3      6662            0.0000000000
     42239      6855  TIP3      OH2           -35.2926080512       -4.4273539804      -22.3484673140  TIP3      6663            0.0000000000
     42240      6855  TIP3      H1            -34.3544672259       -4.2657376620      -22.1206505599  TIP3      6663            0.0000000000
     42241      6855  TIP3      H2            -35.2276409839       -5.0633479080      -23.0727086790  TIP3      6663            0.0000000000
     42242      6856  TIP3      OH2           -20.6306058834      -13.9335685520      -23.6444883454  TIP3      6664            0.0000000000
     42243      6856  TIP3      H1            -20.0040618823      -14.2299038754      -22.9646512446  TIP3      6664            0.0000000000
     42244      6856  TIP3      H2            -21.4586108390      -14.3104036379      -23.3544959656  TIP3      6664            0.0000000000
     42245      6857  TIP3      OH2           -18.4987926690      -15.0270120852      -21.9895885116  TIP3      6665            0.0000000000
     42246      6857  TIP3      H1            -18.1231143248      -15.7084038383      -22.5844287457  TIP3      6665            0.0000000000
     42247      6857  TIP3      H2            -17.8665445076      -14.2971126142      -21.9988511921  TIP3      6665            0.0000000000
     42248      6858  TIP3      OH2           -33.0120824154      -14.9231536983      -22.5922750656  TIP3      6666            0.0000000000
     42249      6858  TIP3      H1            -32.5864217670      -15.6940202416      -23.0028601625  TIP3      6666            0.0000000000
     42250      6858  TIP3      H2            -32.4893061029      -14.7689938262      -21.8005191200  TIP3      6666            0.0000000000
     42251      6859  TIP3      OH2            -7.0915215749       -9.8500924373      -22.3721162647  TIP3      6667            0.0000000000
     42252      6859  TIP3      H1             -6.4148160083       -9.8097501745      -21.6716916913  TIP3      6667            0.0000000000
     42253      6859  TIP3      H2             -6.6967822963      -10.5174448150      -22.9414585710  TIP3      6667            0.0000000000
     42254      6860  TIP3      OH2            -4.8485888281       -8.8805932628      -20.6693695590  TIP3      6668            0.0000000000
     42255      6860  TIP3      H1             -4.1952611443       -8.9199389046      -19.9639580925  TIP3      6668            0.0000000000
     42256      6860  TIP3      H2             -4.3754262598       -8.5211166005      -21.4452530363  TIP3      6668            0.0000000000
     42257      6861  TIP3      OH2            -1.1885669827      -17.2798955719      -20.9131904330  TIP3      6669            0.0000000000
     42258      6861  TIP3      H1             -2.0322992338      -17.0883431619      -20.5022815804  TIP3      6669            0.0000000000
     42259      6861  TIP3      H2             -0.9022074778      -16.4299063334      -21.2451842589  TIP3      6669            0.0000000000
     42260      6862  TIP3      OH2             0.0333192322       -2.8467582090      -22.5950029306  TIP3      6670            0.0000000000
     42261      6862  TIP3      H1              0.1199543370       -1.9314786587      -22.3227525469  TIP3      6670            0.0000000000
     42262      6862  TIP3      H2              0.9405077432       -3.1918294437      -22.4886933792  TIP3      6670            0.0000000000
     42263      6863  TIP3      OH2            -3.4053515760       -7.8727833898      -23.0157373345  TIP3      6671            0.0000000000
     42264      6863  TIP3      H1             -3.3491267722       -8.1358608870      -23.9614356324  TIP3      6671            0.0000000000
     42265      6863  TIP3      H2             -2.4977196293       -7.5504651547      -22.8696879851  TIP3      6671            0.0000000000
     42266      6864  TIP3      OH2            -7.7763930370      -14.0720095371      -22.4214879880  TIP3      6672            0.0000000000
     42267      6864  TIP3      H1             -8.0555114497      -14.0717862936      -21.5051932424  TIP3      6672            0.0000000000
     42268      6864  TIP3      H2             -8.1183480867      -14.9355235797      -22.7270294512  TIP3      6672            0.0000000000
     42269      6865  TIP3      OH2           -10.9412350692      -13.6600040180      -23.2969268299  TIP3      6673            0.0000000000
     42270      6865  TIP3      H1            -11.3783815963      -14.0593586114      -22.5454286964  TIP3      6673            0.0000000000
     42271      6865  TIP3      H2            -11.6352084712      -13.2019637354      -23.8006796079  TIP3      6673            0.0000000000
     42272      6866  TIP3      OH2            -5.1170253233      -13.5000503520      -21.7843369412  TIP3      6674            0.0000000000
     42273      6866  TIP3      H1             -6.0557623558      -13.3211429335      -21.9388377462  TIP3      6674            0.0000000000
     42274      6866  TIP3      H2             -4.7653705551      -12.6657522993      -21.4395270547  TIP3      6674            0.0000000000
     42275      6867  TIP3      OH2            -9.6137081144       -3.4884387542      -23.6530335628  TIP3      6675            0.0000000000
     42276      6867  TIP3      H1             -9.4930609793       -4.2420243013      -24.2666674105  TIP3      6675            0.0000000000
     42277      6867  TIP3      H2            -10.0187801691       -3.9424702979      -22.9003596467  TIP3      6675            0.0000000000
     42278      6868  TIP3      OH2           -13.7392386455       -4.0495332250      -21.8956339970  TIP3      6676            0.0000000000
     42279      6868  TIP3      H1            -13.0850056576       -3.4286113520      -21.5357599263  TIP3      6676            0.0000000000
     42280      6868  TIP3      H2            -13.1892237199       -4.5277606119      -22.5168296153  TIP3      6676            0.0000000000
     42281      6869  TIP3      OH2            -6.7058592606       -4.8446179836      -23.7229490672  TIP3      6677            0.0000000000
     42282      6869  TIP3      H1             -7.0028380527       -4.7334503434      -22.8319780873  TIP3      6677            0.0000000000
     42283      6869  TIP3      H2             -6.9318882468       -5.7905464086      -23.8966130361  TIP3      6677            0.0000000000
     42284      6870  TIP3      OH2            -9.9020377462       -9.7604499551      -22.9082507280  TIP3      6678            0.0000000000
     42285      6870  TIP3      H1            -10.0446724005       -9.7899678462      -23.8668636875  TIP3      6678            0.0000000000
     42286      6870  TIP3      H2             -8.9409055758       -9.6191337043      -22.8356148606  TIP3      6678            0.0000000000
     42287      6871  TIP3      OH2           -16.4380650865       -4.3054012215      -22.4802640151  TIP3      6679            0.0000000000
     42288      6871  TIP3      H1            -15.5230587021       -4.2961968580      -22.1381057450  TIP3      6679            0.0000000000
     42289      6871  TIP3      H2            -16.4210840125       -5.0784715313      -23.0796376927  TIP3      6679            0.0000000000
     42290      6872  TIP3      OH2           -14.4588717381       -0.1213341261      -23.0362305013  TIP3      6680            0.0000000000
     42291      6872  TIP3      H1            -14.6323621418        0.2218757980      -22.1465268789  TIP3      6680            0.0000000000
     42292      6872  TIP3      H2            -13.6088759795       -0.5850607560      -22.8796064739  TIP3      6680            0.0000000000
     42293      6873  TIP3      OH2            17.6872497165      -17.2373322471      -20.9088353825  TIP3      6681            0.0000000000
     42294      6873  TIP3      H1             16.7983754589      -17.0605548410      -20.5747631603  TIP3      6681            0.0000000000
     42295      6873  TIP3      H2             17.9780275331      -16.3777552826      -21.2650361114  TIP3      6681            0.0000000000
     42296      6874  TIP3      OH2            18.8333538476       -2.8309739828      -22.5723457671  TIP3      6682            0.0000000000
     42297      6874  TIP3      H1             19.0556967520       -1.9099967233      -22.3602810217  TIP3      6682            0.0000000000
     42298      6874  TIP3      H2             19.7538509090       -3.1847774875      -22.5163793774  TIP3      6682            0.0000000000
     42299      6875  TIP3      OH2            15.4541979278       -7.9328546810      -23.0217337139  TIP3      6683            0.0000000000
     42300      6875  TIP3      H1             15.5077174020       -8.1773420918      -23.9652125588  TIP3      6683            0.0000000000
     42301      6875  TIP3      H2             16.3381950030       -7.5417557025      -22.8961540351  TIP3      6683            0.0000000000
     42302      6876  TIP3      OH2             6.5838385308      -10.7860903808      -21.9000449681  TIP3      6684            0.0000000000
     42303      6876  TIP3      H1              6.0491246100      -11.2615854245      -22.5627671111  TIP3      6684            0.0000000000
     42304      6876  TIP3      H2              7.3855040221      -10.6898201034      -22.3968502560  TIP3      6684            0.0000000000
     42305      6877  TIP3      OH2            12.0066615889       -4.7866644075      -21.0466413222  TIP3      6685            0.0000000000
     42306      6877  TIP3      H1             11.7423908081       -3.9997865214      -20.5599827701  TIP3      6685            0.0000000000
     42307      6877  TIP3      H2             11.3703747693       -5.4372523255      -20.7310961227  TIP3      6685            0.0000000000
     42308      6878  TIP3      OH2             3.1255233949       -8.5877925405      -22.2360528013  TIP3      6686            0.0000000000
     42309      6878  TIP3      H1              3.7384720638       -7.9927677955      -21.7854435512  TIP3      6686            0.0000000000
     42310      6878  TIP3      H2              2.2553958798       -8.2749112180      -21.9228806231  TIP3      6686            0.0000000000
     42311      6879  TIP3      OH2            15.0873391366       -4.5889240020      -22.1478257344  TIP3      6687            0.0000000000
     42312      6879  TIP3      H1             15.3868852018       -4.9594063947      -21.3061797850  TIP3      6687            0.0000000000
     42313      6879  TIP3      H2             14.1293998072       -4.7223437606      -22.0214996307  TIP3      6687            0.0000000000
     42314      6880  TIP3      OH2             8.0082789171       -3.9474747811      -21.1973705829  TIP3      6688            0.0000000000
     42315      6880  TIP3      H1              8.2988738508       -4.4840618622      -20.4518803431  TIP3      6688            0.0000000000
     42316      6880  TIP3      H2              8.1735479809       -3.0385516886      -20.9253600733  TIP3      6688            0.0000000000
     42317      6881  TIP3      OH2             5.1279055044       -4.0621534250      -21.8840780100  TIP3      6689            0.0000000000
     42318      6881  TIP3      H1              5.7856748747       -3.4406654450      -21.5608472069  TIP3      6689            0.0000000000
     42319      6881  TIP3      H2              5.6767124882       -4.5433797776      -22.5306239512  TIP3      6689            0.0000000000
     42320      6882  TIP3      OH2             6.6837846730       -5.9240739254      -23.5120914485  TIP3      6690            0.0000000000
     42321      6882  TIP3      H1              6.8543726800       -6.6675970581      -22.9183979686  TIP3      6690            0.0000000000
     42322      6882  TIP3      H2              7.4448069424       -6.0237978845      -24.1222616354  TIP3      6690            0.0000000000
     42323      6883  TIP3      OH2             7.9271503150       -7.9492828704      -21.1357842839  TIP3      6691            0.0000000000
     42324      6883  TIP3      H1              7.4335754272       -8.4489030907      -20.4791682247  TIP3      6691            0.0000000000
     42325      6883  TIP3      H2              8.1403222862       -8.6112520520      -21.7922128373  TIP3      6691            0.0000000000
     42326      6884  TIP3      OH2            18.2418231942       -7.3510128729      -23.4525695987  TIP3      6692            0.0000000000
     42327      6884  TIP3      H1             18.1493086672       -7.7609667201      -24.3181647270  TIP3      6692            0.0000000000
     42328      6884  TIP3      H2             18.4327196550       -6.4204884167      -23.6575335760  TIP3      6692            0.0000000000
     42329      6885  TIP3      OH2             2.4442684020       -4.3010079740      -22.4626189164  TIP3      6693            0.0000000000
     42330      6885  TIP3      H1              3.3748826638       -4.3170771553      -22.1451365758  TIP3      6693            0.0000000000
     42331      6885  TIP3      H2              2.4246979830       -5.0698214431      -23.0742616005  TIP3      6693            0.0000000000
     42332      6886  TIP3      OH2            17.8231401138      -11.3207028470      -22.7439369330  TIP3      6694            0.0000000000
     42333      6886  TIP3      H1             17.9968453396      -10.6406853648      -23.3997861669  TIP3      6694            0.0000000000
     42334      6886  TIP3      H2             17.7071313218      -12.1459466777      -23.2233424859  TIP3      6694            0.0000000000
     42335      6887  TIP3      OH2            17.1047276804      -13.9285350764      -23.6586993580  TIP3      6695            0.0000000000
     42336      6887  TIP3      H1             17.7208004961      -14.2073757935      -22.9407759884  TIP3      6695            0.0000000000
     42337      6887  TIP3      H2             16.2657151789      -14.2775619853      -23.3482622500  TIP3      6695            0.0000000000
     42338      6888  TIP3      OH2            19.1626705806      -15.0096641465      -22.0927973372  TIP3      6696            0.0000000000
     42339      6888  TIP3      H1             19.6455083461      -15.7231733400      -22.5393538940  TIP3      6696            0.0000000000
     42340      6888  TIP3      H2             19.8497074122      -14.3418898900      -21.9331229251  TIP3      6696            0.0000000000
     42341      6889  TIP3      OH2             4.5002454241       -0.0352946748      -23.0459062106  TIP3      6697            0.0000000000
     42342      6889  TIP3      H1              4.1713930359        0.1523091394      -22.1656021409  TIP3      6697            0.0000000000
     42343      6889  TIP3      H2              5.2431316962       -0.6537737475      -22.8981663282  TIP3      6697            0.0000000000
     42344      6890  TIP3      OH2            32.8163620861       -8.9243731389      -20.6744160854  TIP3      6698            0.0000000000
     42345      6890  TIP3      H1             33.4302172478       -8.8126780179      -19.9670763066  TIP3      6698            0.0000000000
     42346      6890  TIP3      H2             33.2211197672       -8.5321853998      -21.4612984801  TIP3      6698            0.0000000000
     42347      6891  TIP3      OH2            34.4001750436       -7.9971421176      -22.9613433408  TIP3      6699            0.0000000000
     42348      6891  TIP3      H1             34.3273118761       -8.1799512804      -23.9325714477  TIP3      6699            0.0000000000
     42349      6891  TIP3      H2             35.1927028908       -7.4699268693      -22.9494676654  TIP3      6699            0.0000000000
     42350      6892  TIP3      OH2            26.7786364819      -13.6803822947      -23.3049924999  TIP3      6700            0.0000000000
     42351      6892  TIP3      H1             26.3411100868      -14.0370700151      -22.5257109741  TIP3      6700            0.0000000000
     42352      6892  TIP3      H2             26.0818779624      -13.2096356973      -23.7805534761  TIP3      6700            0.0000000000
     42353      6893  TIP3      OH2            33.9883922673       -4.6103566697      -22.1618361436  TIP3      6701            0.0000000000
     42354      6893  TIP3      H1             34.2964464730       -4.9729264336      -21.3267705563  TIP3      6701            0.0000000000
     42355      6893  TIP3      H2             33.0316265650       -4.6865052943      -22.0697577564  TIP3      6701            0.0000000000
     42356      6894  TIP3      OH2            34.6593625847       -1.8416787636      -23.3545015241  TIP3      6702            0.0000000000
     42357      6894  TIP3      H1             34.9430655968       -2.6179338281      -22.8432716839  TIP3      6702            0.0000000000
     42358      6894  TIP3      H2             35.4270433692       -1.6614136259      -23.9056152960  TIP3      6702            0.0000000000
     42359      6895  TIP3      OH2            25.5826391902       -5.9095782544      -23.5957616058  TIP3      6703            0.0000000000
     42360      6895  TIP3      H1             25.6901934211       -6.6101580579      -22.9312899052  TIP3      6703            0.0000000000
     42361      6895  TIP3      H2             26.3571526542       -6.0553449377      -24.1564278512  TIP3      6703            0.0000000000
     42362      6896  TIP3      OH2            31.0381606030       -4.8457117300      -23.7056734096  TIP3      6704            0.0000000000
     42363      6896  TIP3      H1             30.6481408414       -4.7203142839      -22.8385426948  TIP3      6704            0.0000000000
     42364      6896  TIP3      H2             30.7829836155       -5.7800151308      -23.8894527288  TIP3      6704            0.0000000000
     42365      6897  TIP3      OH2            21.2793283709       -4.3392197455      -22.4559100335  TIP3      6705            0.0000000000
     42366      6897  TIP3      H1             22.1979406581       -4.3100467716      -22.1278109045  TIP3      6705            0.0000000000
     42367      6897  TIP3      H2             21.3113826523       -5.1190652904      -23.0567094967  TIP3      6705            0.0000000000
     42368      6898  TIP3      OH2            35.9803543674      -13.8929979041      -23.6057341571  TIP3      6706            0.0000000000
     42369      6898  TIP3      H1             36.5728329995      -14.2539356431      -22.9355361758  TIP3      6706            0.0000000000
     42370      6898  TIP3      H2             35.1332674293      -14.3025029919      -23.3967324549  TIP3      6706            0.0000000000
     42371      6899  TIP3      OH2            23.4721146180        0.0063036630      -23.0551241935  TIP3      6707            0.0000000000
     42372      6899  TIP3      H1             22.9697645179        0.1895482460      -22.2305705240  TIP3      6707            0.0000000000
     42373      6899  TIP3      H2             24.0338669249       -0.7188121283      -22.7919322186  TIP3      6707            0.0000000000
     42374      6900  TIP3      OH2           -19.9836355534        1.6711917520      -20.9197088940  TIP3      6708            0.0000000000
     42375      6900  TIP3      H1            -20.8885346168        1.7235362618      -20.5692578375  TIP3      6708            0.0000000000
     42376      6900  TIP3      H2            -19.8117177731        2.5131047833      -21.3035896227  TIP3      6708            0.0000000000
     42377      6901  TIP3      OH2           -23.3661510093       18.7439866071      -21.8555554059  TIP3      6709            0.0000000000
     42378      6901  TIP3      H1            -23.0250108737       17.9514925461      -22.2882605826  TIP3      6709            0.0000000000
     42379      6901  TIP3      H2            -23.4063044977       18.4761526428      -20.9262388006  TIP3      6709            0.0000000000
     42380      6902  TIP3      OH2           -35.3297399869        5.6867642159      -20.8659828376  TIP3      6710            0.0000000000
     42381      6902  TIP3      H1            -34.7428430412        6.2821784854      -21.3779166031  TIP3      6710            0.0000000000
     42382      6902  TIP3      H2            -35.9849001543        6.2814254589      -20.4826800888  TIP3      6710            0.0000000000
     42383      6903  TIP3      OH2           -34.5586228041       10.2577153597      -22.2280620434  TIP3      6711            0.0000000000
     42384      6903  TIP3      H1            -33.9871594780       10.8580083807      -21.7431968754  TIP3      6711            0.0000000000
     42385      6903  TIP3      H2            -35.4522208774       10.5309087130      -21.9448902091  TIP3      6711            0.0000000000
     42386      6904  TIP3      OH2           -28.4890645258       15.3683395975      -23.6539961986  TIP3      6712            0.0000000000
     42387      6904  TIP3      H1            -28.3236154546       14.6189285722      -24.2511649955  TIP3      6712            0.0000000000
     42388      6904  TIP3      H2            -28.8096885730       14.9419304348      -22.8528004048  TIP3      6712            0.0000000000
     42389      6905  TIP3      OH2           -26.8605501354       16.5861709126      -20.5306234036  TIP3      6713            0.0000000000
     42390      6905  TIP3      H1            -27.6767564363       17.1051401438      -20.4063057270  TIP3      6713            0.0000000000
     42391      6905  TIP3      H2            -26.3521985149       17.1738110607      -21.0984601789  TIP3      6713            0.0000000000
     42392      6906  TIP3      OH2           -34.2301689453        7.4437202421      -22.7304092454  TIP3      6714            0.0000000000
     42393      6906  TIP3      H1            -34.2856751011        8.3867010901      -22.5107854587  TIP3      6714            0.0000000000
     42394      6906  TIP3      H2            -35.1287010231        7.2475960031      -23.0223060646  TIP3      6714            0.0000000000
     42395      6907  TIP3      OH2           -26.4522496471       17.2436733424      -23.5544481067  TIP3      6715            0.0000000000
     42396      6907  TIP3      H1            -27.1446861783       16.5953378131      -23.2880302978  TIP3      6715            0.0000000000
     42397      6907  TIP3      H2            -25.7356303834       16.6442395982      -23.8065040908  TIP3      6715            0.0000000000
     42398      6908  TIP3      OH2           -25.6443424625       14.0579976979      -23.8262889741  TIP3      6716            0.0000000000
     42399      6908  TIP3      H1            -25.8791589639       14.1841568477      -22.9153757193  TIP3      6716            0.0000000000
     42400      6908  TIP3      H2            -25.7610233766       13.0808289210      -23.9316155628  TIP3      6716            0.0000000000
     42401      6909  TIP3      OH2           -28.8932398066       19.8989257262      -21.8449233978  TIP3      6717            0.0000000000
     42402      6909  TIP3      H1            -27.9311602785       19.9482035960      -21.7181153933  TIP3      6717            0.0000000000
     42403      6909  TIP3      H2            -29.0109061880       20.4966612262      -22.5852235621  TIP3      6717            0.0000000000
     42404      6910  TIP3      OH2           -35.3100386298       14.4849798782      -22.4277564539  TIP3      6718            0.0000000000
     42405      6910  TIP3      H1            -34.4133128959       14.5956559222      -22.1177697569  TIP3      6718            0.0000000000
     42406      6910  TIP3      H2            -35.2748832276       13.7798812963      -23.0880979198  TIP3      6718            0.0000000000
     42407      6911  TIP3      OH2           -26.1802308481       19.0761478540      -21.6272098129  TIP3      6719            0.0000000000
     42408      6911  TIP3      H1            -25.3120194304       19.4295127840      -21.8574705790  TIP3      6719            0.0000000000
     42409      6911  TIP3      H2            -26.4429461315       18.6251364957      -22.4549626816  TIP3      6719            0.0000000000
     42410      6912  TIP3      OH2            -4.7610850800        9.8280561404      -20.7474259931  TIP3      6720            0.0000000000
     42411      6912  TIP3      H1             -4.2842107429       10.0741463964      -19.9670027713  TIP3      6720            0.0000000000
     42412      6912  TIP3      H2             -4.4128037624       10.3964152093      -21.4602827918  TIP3      6720            0.0000000000
     42413      6913  TIP3      OH2            -4.4769409724       18.7429049900      -21.8423283580  TIP3      6721            0.0000000000
     42414      6913  TIP3      H1             -4.1729659429       17.9571186105      -22.2828834332  TIP3      6721            0.0000000000
     42415      6913  TIP3      H2             -4.5860346442       18.4879633079      -20.9133259721  TIP3      6721            0.0000000000
     42416      6914  TIP3      OH2            -3.3379680365       10.9193707752      -22.9928953736  TIP3      6722            0.0000000000
     42417      6914  TIP3      H1             -3.3623841006       10.6991888934      -23.9571094443  TIP3      6722            0.0000000000
     42418      6914  TIP3      H2             -2.4610494547       11.3085383850      -22.9301936984  TIP3      6722            0.0000000000
     42419      6915  TIP3      OH2           -12.3409366901        7.9749346265      -21.9373699610  TIP3      6723            0.0000000000
     42420      6915  TIP3      H1            -12.7983722204        7.6640076585      -22.7161879174  TIP3      6723            0.0000000000
     42421      6915  TIP3      H2            -11.5157342147        8.2449582385      -22.3432306568  TIP3      6723            0.0000000000
     42422      6916  TIP3      OH2            -9.6224561157       15.4062031895      -23.7006735641  TIP3      6724            0.0000000000
     42423      6916  TIP3      H1             -9.5071611260       14.6076884738      -24.2308505763  TIP3      6724            0.0000000000
     42424      6916  TIP3      H2             -9.9920417042       14.9954056982      -22.8811573162  TIP3      6724            0.0000000000
     42425      6917  TIP3      OH2           -10.7323868969       14.9230466721      -21.2587327509  TIP3      6725            0.0000000000
     42426      6917  TIP3      H1            -10.6092641361       14.3730524361      -20.4640390562  TIP3      6725            0.0000000000
     42427      6917  TIP3      H2            -10.7397358877       15.8052667060      -20.8931116335  TIP3      6725            0.0000000000
     42428      6918  TIP3      OH2            -8.0015020398       16.6569932662      -20.5052985475  TIP3      6726            0.0000000000
     42429      6918  TIP3      H1             -8.8202383435       17.1554402231      -20.4477950158  TIP3      6726            0.0000000000
     42430      6918  TIP3      H2             -7.4821850910       17.1655201188      -21.1286748538  TIP3      6726            0.0000000000
     42431      6919  TIP3      OH2            -7.6090976533       17.2562955678      -23.5671106846  TIP3      6727            0.0000000000
     42432      6919  TIP3      H1             -8.3017264906       16.6106609225      -23.2898647160  TIP3      6727            0.0000000000
     42433      6919  TIP3      H2             -6.8855206306       16.6611848767      -23.7869578074  TIP3      6727            0.0000000000
     42434      6920  TIP3      OH2           -12.1853970482       12.9245788677      -23.5765169876  TIP3      6728            0.0000000000
     42435      6920  TIP3      H1            -12.0596037740       12.2069873845      -22.9335293050  TIP3      6728            0.0000000000
     42436      6920  TIP3      H2            -11.3959547903       12.8253973699      -24.1345066496  TIP3      6728            0.0000000000
     42437      6921  TIP3      OH2            -6.7100559694       14.0224018160      -23.7347566313  TIP3      6729            0.0000000000
     42438      6921  TIP3      H1             -6.9752252596       14.1231270381      -22.8099803423  TIP3      6729            0.0000000000
     42439      6921  TIP3      H2             -6.9330056486       13.0734511440      -23.8655089000  TIP3      6729            0.0000000000
     42440      6922  TIP3      OH2            -0.5391311708       11.5157153683      -23.4714543063  TIP3      6730            0.0000000000
     42441      6922  TIP3      H1             -0.7323280852       11.0820736849      -24.3176952146  TIP3      6730            0.0000000000
     42442      6922  TIP3      H2             -0.4211603737       12.4464414471      -23.7318333426  TIP3      6730            0.0000000000
     42443      6923  TIP3      OH2           -10.0122014691       19.8796625146      -21.8423251941  TIP3      6731            0.0000000000
     42444      6923  TIP3      H1             -9.0517617285       19.9651072254      -21.7493926940  TIP3      6731            0.0000000000
     42445      6923  TIP3      H2            -10.1809836575       20.4664956326      -22.5822426010  TIP3      6731            0.0000000000
     42446      6924  TIP3      OH2             0.3764609985        3.8102432500      -22.0746391318  TIP3      6732            0.0000000000
     42447      6924  TIP3      H1              0.7668962586        3.0780922652      -22.5681408410  TIP3      6732            0.0000000000
     42448      6924  TIP3      H2              1.0026885789        4.5327544914      -22.0089679793  TIP3      6732            0.0000000000
     42449      6925  TIP3      OH2           -16.0874736018        1.8920209128      -20.9872406302  TIP3      6733            0.0000000000
     42450      6925  TIP3      H1            -15.6117332280        2.5046575706      -21.5299038722  TIP3      6733            0.0000000000
     42451      6925  TIP3      H2            -16.7119055515        2.4144158745      -20.4768146037  TIP3      6733            0.0000000000
     42452      6926  TIP3      OH2            11.7493884504        8.9541916268      -22.3441596751  TIP3      6734            0.0000000000
     42453      6926  TIP3      H1             12.4534967772        8.9688936899      -21.6939616274  TIP3      6734            0.0000000000
     42454      6926  TIP3      H2             12.1250999873        8.3116818888      -22.9559579514  TIP3      6734            0.0000000000
     42455      6927  TIP3      OH2            15.4988847459       10.9381644012      -22.9983340049  TIP3      6735            0.0000000000
     42456      6927  TIP3      H1             15.4689071621       10.7284006057      -23.9624962922  TIP3      6735            0.0000000000
     42457      6927  TIP3      H2             16.3612111798       11.3640203684      -22.9090500468  TIP3      6735            0.0000000000
     42458      6928  TIP3      OH2            10.9815732436        4.8181223506      -22.4776091380  TIP3      6736            0.0000000000
     42459      6928  TIP3      H1             10.8607521063        4.8219435433      -21.5224294002  TIP3      6736            0.0000000000
     42460      6928  TIP3      H2             10.7698763178        3.9046257186      -22.6899759271  TIP3      6736            0.0000000000
     42461      6929  TIP3      OH2             7.9159105166        5.2166974312      -23.3279825021  TIP3      6737            0.0000000000
     42462      6929  TIP3      H1              7.5304526076        4.8190055808      -22.5377557798  TIP3      6737            0.0000000000
     42463      6929  TIP3      H2              7.1964120095        5.6605517761      -23.7920137689  TIP3      6737            0.0000000000
     42464      6930  TIP3      OH2             6.5888997727        7.9508987938      -21.9059536167  TIP3      6738            0.0000000000
     42465      6930  TIP3      H1              6.0657826924        7.6389793837      -22.6477776260  TIP3      6738            0.0000000000
     42466      6930  TIP3      H2              7.3997493823        8.2337659268      -22.3468858828  TIP3      6738            0.0000000000
     42467      6931  TIP3      OH2            19.3966543002        7.4303353817      -20.4450856724  TIP3      6739            0.0000000000
     42468      6931  TIP3      H1             18.8269591287        7.0379736534      -21.1415271946  TIP3      6739            0.0000000000
     42469      6931  TIP3      H2             19.4228377046        8.3568420207      -20.7117284375  TIP3      6739            0.0000000000
     42470      6932  TIP3      OH2             3.1462510084       10.2854981459      -22.2001044580  TIP3      6740            0.0000000000
     42471      6932  TIP3      H1              3.7677013331       10.8911207879      -21.7875282264  TIP3      6740            0.0000000000
     42472      6932  TIP3      H2              2.2472735440       10.5343109256      -21.9841172724  TIP3      6740            0.0000000000
     42473      6933  TIP3      OH2             9.1363747192       15.3976559116      -23.7253720111  TIP3      6741            0.0000000000
     42474      6933  TIP3      H1              9.3873373189       14.6009054676      -24.2125530577  TIP3      6741            0.0000000000
     42475      6933  TIP3      H2              8.9407306922       14.9726603394      -22.8726198802  TIP3      6741            0.0000000000
     42476      6934  TIP3      OH2             8.2134573921       17.6649459908      -20.4873200175  TIP3      6742            0.0000000000
     42477      6934  TIP3      H1              8.3299533195       18.4444143541      -21.0268248673  TIP3      6742            0.0000000000
     42478      6934  TIP3      H2              8.0335013496       17.9785493880      -19.5992255670  TIP3      6742            0.0000000000
     42479      6935  TIP3      OH2             6.7447803503       12.8966083864      -23.5332024863  TIP3      6743            0.0000000000
     42480      6935  TIP3      H1              6.8676898557       12.1697617963      -22.8999689701  TIP3      6743            0.0000000000
     42481      6935  TIP3      H2              7.4898565256       12.7887438247      -24.1427274175  TIP3      6743            0.0000000000
     42482      6936  TIP3      OH2             7.9019182888       10.8850560366      -21.1756864491  TIP3      6744            0.0000000000
     42483      6936  TIP3      H1              7.4859007829       10.3724092582      -20.4853884756  TIP3      6744            0.0000000000
     42484      6936  TIP3      H2              8.2095164149       10.2061404643      -21.8000607745  TIP3      6744            0.0000000000
     42485      6937  TIP3      OH2             8.9684277962        9.1106519584      -22.9055851497  TIP3      6745            0.0000000000
     42486      6937  TIP3      H1              8.8481946336        9.0661351482      -23.8676536828  TIP3      6745            0.0000000000
     42487      6937  TIP3      H2              9.9389753241        9.2180515731      -22.8077585473  TIP3      6745            0.0000000000
     42488      6938  TIP3      OH2            17.9605060380        7.5967338072      -22.7331175921  TIP3      6746            0.0000000000
     42489      6938  TIP3      H1             17.9151177650        8.2213623866      -23.4597169828  TIP3      6746            0.0000000000
     42490      6938  TIP3      H2             17.6666623029        6.7605381501      -23.1426403282  TIP3      6746            0.0000000000
     42491      6939  TIP3      OH2            19.1955517187        3.9151360338      -22.0688906178  TIP3      6747            0.0000000000
     42492      6939  TIP3      H1             19.5750766794        3.1116846616      -22.4786422442  TIP3      6747            0.0000000000
     42493      6939  TIP3      H2             19.9425943957        4.4777219745      -21.9597167096  TIP3      6747            0.0000000000
     42494      6940  TIP3      OH2             4.6251755815        3.8378190799      -22.4785943429  TIP3      6748            0.0000000000
     42495      6940  TIP3      H1              5.0946753077        3.2006069379      -23.0445287400  TIP3      6748            0.0000000000
     42496      6940  TIP3      H2              5.2747349530        4.1333710761      -21.8405394203  TIP3      6748            0.0000000000
     42497      6941  TIP3      OH2            30.6269552241        9.0117361020      -22.3616711088  TIP3      6749            0.0000000000
     42498      6941  TIP3      H1             31.3155869063        9.0444835943      -21.6577170582  TIP3      6749            0.0000000000
     42499      6941  TIP3      H2             30.9744277085        8.3136868585      -22.9182616030  TIP3      6749            0.0000000000
     42500      6942  TIP3      OH2            32.6930238547       10.0109245344      -20.7971437447  TIP3      6750            0.0000000000
     42501      6942  TIP3      H1             33.3765639433       10.0009505118      -20.0714976528  TIP3      6750            0.0000000000
     42502      6942  TIP3      H2             33.2564206465       10.3943594101      -21.4878902756  TIP3      6750            0.0000000000
     42503      6943  TIP3      OH2            34.3687431655       10.8733638253      -22.9700421804  TIP3      6751            0.0000000000
     42504      6943  TIP3      H1             34.3425798298       10.6926832535      -23.9304418348  TIP3      6751            0.0000000000
     42505      6943  TIP3      H2             35.1791647038       11.3704316139      -22.8898889861  TIP3      6751            0.0000000000
     42506      6944  TIP3      OH2            26.7743818662        5.2064380199      -23.3281125438  TIP3      6752            0.0000000000
     42507      6944  TIP3      H1             26.3800915142        4.8288886991      -22.5293018895  TIP3      6752            0.0000000000
     42508      6944  TIP3      H2             26.0596990179        5.6460692447      -23.7961980301  TIP3      6752            0.0000000000
     42509      6945  TIP3      OH2            25.3711203706        8.0155057062      -21.9498828143  TIP3      6753            0.0000000000
     42510      6945  TIP3      H1             24.9407224544        7.5862603125      -22.6827839332  TIP3      6753            0.0000000000
     42511      6945  TIP3      H2             26.2567362369        8.2261855538      -22.3128959900  TIP3      6753            0.0000000000
     42512      6946  TIP3      OH2            33.4936806298        7.0108198625      -20.6478897249  TIP3      6754            0.0000000000
     42513      6946  TIP3      H1             34.0929899306        7.0649967544      -19.8774556895  TIP3      6754            0.0000000000
     42514      6946  TIP3      H2             33.3371059538        7.9847481149      -20.6806487551  TIP3      6754            0.0000000000
     42515      6947  TIP3      OH2            28.1061320227       15.3786649503      -23.6423005419  TIP3      6755            0.0000000000
     42516      6947  TIP3      H1             28.2061049369       14.6246654477      -24.2453163056  TIP3      6755            0.0000000000
     42517      6947  TIP3      H2             27.7214460266       14.9448096808      -22.8714326889  TIP3      6755            0.0000000000
     42518      6948  TIP3      OH2            30.1303258984       17.2250553987      -23.4896382706  TIP3      6756            0.0000000000
     42519      6948  TIP3      H1             29.3927380168       16.5935485833      -23.2946161516  TIP3      6756            0.0000000000
     42520      6948  TIP3      H2             30.7985531078       16.6144689053      -23.8133049141  TIP3      6756            0.0000000000
     42521      6949  TIP3      OH2            25.5962747581       12.9507286581      -23.4842123917  TIP3      6757            0.0000000000
     42522      6949  TIP3      H1             25.7171959752       12.1663149988      -22.9238718190  TIP3      6757            0.0000000000
     42523      6949  TIP3      H2             26.3171124397       12.8229873580      -24.1297253756  TIP3      6757            0.0000000000
     42524      6950  TIP3      OH2            31.0383709904       14.0283373193      -23.7031703261  TIP3      6758            0.0000000000
     42525      6950  TIP3      H1             30.6644014335       14.1355487715      -22.8280036491  TIP3      6758            0.0000000000
     42526      6950  TIP3      H2             30.8047566329       13.0839860202      -23.8741542281  TIP3      6758            0.0000000000
     42527      6951  TIP3      OH2            27.8023605678        9.1331971346      -22.9181902223  TIP3      6759            0.0000000000
     42528      6951  TIP3      H1             27.6878007195        9.0602351006      -23.8742994570  TIP3      6759            0.0000000000
     42529      6951  TIP3      H2             28.7729861144        9.2111704357      -22.8121053175  TIP3      6759            0.0000000000
     42530      6952  TIP3      OH2            27.6858791173       19.8618388144      -21.9307419978  TIP3      6760            0.0000000000
     42531      6952  TIP3      H1             28.6362748685       19.9290322588      -21.7352647137  TIP3      6760            0.0000000000
     42532      6952  TIP3      H2             27.5561945970       20.5284383835      -22.6008902188  TIP3      6760            0.0000000000
     42533      6953  TIP3      OH2            35.9454614626        4.9192668193      -23.6096799192  TIP3      6761            0.0000000000
     42534      6953  TIP3      H1             36.5597300610        4.6535318214      -22.9184837466  TIP3      6761            0.0000000000
     42535      6953  TIP3      H2             35.1038811669        4.5529057838      -23.3720434049  TIP3      6761            0.0000000000
     42536      6954  TIP3      OH2            23.5412810394        3.8911551480      -22.5477846057  TIP3      6762            0.0000000000
     42537      6954  TIP3      H1             23.9980571570        3.1747692816      -23.0095754231  TIP3      6762            0.0000000000
     42538      6954  TIP3      H2             24.0832152236        4.1154198005      -21.7854665092  TIP3      6762            0.0000000000
     42539      6955  TIP3      OH2            30.3794498336       19.1474361055      -21.6311285654  TIP3      6763            0.0000000000
     42540      6955  TIP3      H1             31.2470490870       19.4265482085      -21.8815202965  TIP3      6763            0.0000000000
     42541      6955  TIP3      H2             30.1007699160       18.5988806956      -22.4039180963  TIP3      6763            0.0000000000
     42542      6956  TIP3      OH2           -18.7872682650       34.8136230767      -22.5439885021  TIP3      6764            0.0000000000
     42543      6956  TIP3      H1            -18.7102815022       35.7623621320      -22.3555556277  TIP3      6764            0.0000000000
     42544      6956  TIP3      H2            -17.8591086575       34.5577295312      -22.4765772830  TIP3      6764            0.0000000000
     42545      6957  TIP3      OH2           -22.2639451982       29.8038157762      -23.0490135594  TIP3      6765            0.0000000000
     42546      6957  TIP3      H1            -22.2503798191       29.5579315981      -24.0011472926  TIP3      6765            0.0000000000
     42547      6957  TIP3      H2            -21.4348204428       30.2653678613      -22.9321556749  TIP3      6765            0.0000000000
     42548      6958  TIP3      OH2           -29.7804241265       24.0240366564      -23.3603221714  TIP3      6766            0.0000000000
     42549      6958  TIP3      H1            -30.1761285172       23.7083860773      -22.5386379118  TIP3      6766            0.0000000000
     42550      6958  TIP3      H2            -30.4983138537       24.5111860676      -23.7946761038  TIP3      6766            0.0000000000
     42551      6959  TIP3      OH2           -23.8951138256       24.2731801056      -21.7784328802  TIP3      6767            0.0000000000
     42552      6959  TIP3      H1            -24.8579288613       24.3679014864      -21.8581157679  TIP3      6767            0.0000000000
     42553      6959  TIP3      H2            -23.6361310873       25.1349400497      -21.4325534104  TIP3      6767            0.0000000000
     42554      6960  TIP3      OH2           -22.6043296979       33.0634882470      -22.1794392894  TIP3      6768            0.0000000000
     42555      6960  TIP3      H1            -22.2553927739       32.7499270390      -21.3385005931  TIP3      6768            0.0000000000
     42556      6960  TIP3      H2            -23.5462552620       33.0549469583      -22.0292894246  TIP3      6768            0.0000000000
     42557      6961  TIP3      OH2           -28.4041584633       34.1920271854      -23.6332796847  TIP3      6769            0.0000000000
     42558      6961  TIP3      H1            -28.4376600193       33.4784851844      -24.2798901857  TIP3      6769            0.0000000000
     42559      6961  TIP3      H2            -28.8757410878       33.8119999137      -22.8813636261  TIP3      6769            0.0000000000
     42560      6962  TIP3      OH2           -26.7947252584       35.4108222112      -20.4821284445  TIP3      6770            0.0000000000
     42561      6962  TIP3      H1            -27.6216893147       35.9530911084      -20.4157117310  TIP3      6770            0.0000000000
     42562      6962  TIP3      H2            -26.3250269630       35.9570906399      -21.1271149010  TIP3      6770            0.0000000000
     42563      6963  TIP3      OH2           -28.8801308545      -36.1296984833      -20.5102159231  TIP3      6771            0.0000000000
     42564      6963  TIP3      H1            -29.3908819560      -35.6001847229      -21.1226214256  TIP3      6771            0.0000000000
     42565      6963  TIP3      H2            -29.4568286262      -36.1017220352      -19.7085847443  TIP3      6771            0.0000000000
     42566      6964  TIP3      OH2           -32.5968000296       33.6687106484      -21.9326540651  TIP3      6772            0.0000000000
     42567      6964  TIP3      H1            -31.9673281502       34.2893317600      -21.5093374632  TIP3      6772            0.0000000000
     42568      6964  TIP3      H2            -32.0402699043       33.1595286307      -22.5391687076  TIP3      6772            0.0000000000
     42569      6965  TIP3      OH2           -26.4263742253       36.0219589553      -23.4207954125  TIP3      6773            0.0000000000
     42570      6965  TIP3      H1            -27.1709050229       35.4132860339      -23.2927390099  TIP3      6773            0.0000000000
     42571      6965  TIP3      H2            -25.7136903360       35.5361241659      -23.8270540783  TIP3      6773            0.0000000000
     42572      6966  TIP3      OH2           -30.8512798350       31.8524145115      -23.4346838907  TIP3      6774            0.0000000000
     42573      6966  TIP3      H1            -30.9396065506       31.0067346459      -22.9401205498  TIP3      6774            0.0000000000
     42574      6966  TIP3      H2            -30.3044441539       31.6186216350      -24.1908188554  TIP3      6774            0.0000000000
     42575      6967  TIP3      OH2           -35.3227172049       33.3405429867      -22.3869861745  TIP3      6775            0.0000000000
     42576      6967  TIP3      H1            -34.3855071366       33.4407981461      -22.1190644803  TIP3      6775            0.0000000000
     42577      6967  TIP3      H2            -35.2372075510       32.6564952870      -23.0618330424  TIP3      6775            0.0000000000
     42578      6968  TIP3      OH2           -20.6116557427       23.8670824572      -23.5500354681  TIP3      6776            0.0000000000
     42579      6968  TIP3      H1            -19.9887418851       23.4105010056      -22.9717374493  TIP3      6776            0.0000000000
     42580      6968  TIP3      H2            -21.4553328109       23.4145490879      -23.4185291940  TIP3      6776            0.0000000000
     42581      6969  TIP3      OH2             0.0625281635       34.8280020504      -22.4655092048  TIP3      6777            0.0000000000
     42582      6969  TIP3      H1              0.1857289058       35.7910599888      -22.3924062006  TIP3      6777            0.0000000000
     42583      6969  TIP3      H2              0.9817231154       34.5417757939      -22.4868095160  TIP3      6777            0.0000000000
     42584      6970  TIP3      OH2            -3.3215684987       29.7061513462      -22.9452653612  TIP3      6778            0.0000000000
     42585      6970  TIP3      H1             -3.4012747202       29.5769806272      -23.9292274812  TIP3      6778            0.0000000000
     42586      6970  TIP3      H2             -2.5551233487       30.2824376755      -22.9765691837  TIP3      6778            0.0000000000
     42587      6971  TIP3      OH2           -10.9315769768       24.0939839319      -23.2808454643  TIP3      6779            0.0000000000
     42588      6971  TIP3      H1            -11.4032692878       23.6490835246      -22.5530783335  TIP3      6779            0.0000000000
     42589      6971  TIP3      H2            -11.6587351357       24.4809415902      -23.7917520888  TIP3      6779            0.0000000000
     42590      6972  TIP3      OH2           -16.4023941489       24.5557760365      -20.7922103691  TIP3      6780            0.0000000000
     42591      6972  TIP3      H1            -15.9158110758       25.1357308183      -21.4152220327  TIP3      6780            0.0000000000
     42592      6972  TIP3      H2            -17.0955103603       25.1157308713      -20.4634055177  TIP3      6780            0.0000000000
     42593      6973  TIP3      OH2           -12.3001409883       26.7742558595      -21.9254008203  TIP3      6781            0.0000000000
     42594      6973  TIP3      H1            -12.8506893009       26.4864321240      -22.6588151274  TIP3      6781            0.0000000000
     42595      6973  TIP3      H2            -11.4878921974       27.0816686125      -22.3432260844  TIP3      6781            0.0000000000
     42596      6974  TIP3      OH2           -15.7366027504       29.0939973486      -22.2050227632  TIP3      6782            0.0000000000
     42597      6974  TIP3      H1            -15.0694590939       29.7034375804      -21.7901740337  TIP3      6782            0.0000000000
     42598      6974  TIP3      H2            -16.5551570039       29.5107862758      -21.9404485772  TIP3      6782            0.0000000000
     42599      6975  TIP3      OH2            -9.6798851415       34.2498066376      -23.7189978975  TIP3      6783            0.0000000000
     42600      6975  TIP3      H1             -9.4540088733       33.4630133576      -24.2230721070  TIP3      6783            0.0000000000
     42601      6975  TIP3      H2             -9.9580715569       33.8480424056      -22.8691731516  TIP3      6783            0.0000000000
     42602      6976  TIP3      OH2           -10.8147198202       33.7394473097      -21.1974286073  TIP3      6784            0.0000000000
     42603      6976  TIP3      H1            -10.5732327791       33.2166433558      -20.4239412719  TIP3      6784            0.0000000000
     42604      6976  TIP3      H2            -10.7218897489       34.6754657645      -20.9239850253  TIP3      6784            0.0000000000
     42605      6977  TIP3      OH2           -14.3783248367       31.0349444881      -20.7856617579  TIP3      6785            0.0000000000
     42606      6977  TIP3      H1            -14.9691073099       31.4193347019      -20.1501270453  TIP3      6785            0.0000000000
     42607      6977  TIP3      H2            -13.7759253204       31.7764688532      -20.9999572125  TIP3      6785            0.0000000000
     42608      6978  TIP3      OH2           -10.8034603810      -36.6194382166      -20.4728009025  TIP3      6786            0.0000000000
     42609      6978  TIP3      H1            -10.4797619815      -35.8823450436      -21.0285749902  TIP3      6786            0.0000000000
     42610      6978  TIP3      H2            -10.8174154699      -36.2564535604      -19.5937434490  TIP3      6786            0.0000000000
     42611      6979  TIP3      OH2           -11.9873280439       23.2130547701      -20.8667510882  TIP3      6787            0.0000000000
     42612      6979  TIP3      H1            -12.0347540726       24.1295919324      -20.5440868037  TIP3      6787            0.0000000000
     42613      6979  TIP3      H2            -11.0770335232       22.9763363866      -20.6547127444  TIP3      6787            0.0000000000
     42614      6980  TIP3      OH2           -13.6933977807       33.6367534802      -21.8487739037  TIP3      6788            0.0000000000
     42615      6980  TIP3      H1            -13.0545243150       34.2996560327      -21.5689117964  TIP3      6788            0.0000000000
     42616      6980  TIP3      H2            -13.1955499001       33.1792670920      -22.5445644883  TIP3      6788            0.0000000000
     42617      6981  TIP3      OH2           -15.3787213521       26.3363440801      -22.6594950340  TIP3      6789            0.0000000000
     42618      6981  TIP3      H1            -15.3657865046       27.2976116084      -22.5079243542  TIP3      6789            0.0000000000
     42619      6981  TIP3      H2            -16.2290000551       26.0876851554      -23.0194848987  TIP3      6789            0.0000000000
     42620      6982  TIP3      OH2            -2.8223249812       35.8371031032      -23.3243940669  TIP3      6790            0.0000000000
     42621      6982  TIP3      H1             -2.6157259031       34.9847612633      -22.9417236569  TIP3      6790            0.0000000000
     42622      6982  TIP3      H2             -2.1314831225       36.0517089952      -23.9696612148  TIP3      6790            0.0000000000
     42623      6983  TIP3      OH2           -12.1666862514       31.7624787863      -23.5270558423  TIP3      6791            0.0000000000
     42624      6983  TIP3      H1            -12.0099054811       31.0098349592      -22.9318523700  TIP3      6791            0.0000000000
     42625      6983  TIP3      H2            -11.4028254647       31.6619051405      -24.1267646057  TIP3      6791            0.0000000000
     42626      6984  TIP3      OH2            -6.6188715878       32.8234278664      -23.7371272327  TIP3      6792            0.0000000000
     42627      6984  TIP3      H1             -7.0282446774       33.0761085112      -22.8834597087  TIP3      6792            0.0000000000
     42628      6984  TIP3      H2             -6.9489074373       31.9161637505      -23.8522197590  TIP3      6792            0.0000000000
     42629      6985  TIP3      OH2           -11.0030763483       29.7944948609      -21.1747407218  TIP3      6793            0.0000000000
     42630      6985  TIP3      H1            -11.4224184054       29.2515677011      -20.4647776322  TIP3      6793            0.0000000000
     42631      6985  TIP3      H2            -10.6882497048       29.0857843306      -21.7538216979  TIP3      6793            0.0000000000
     42632      6986  TIP3      OH2            -9.8790103723       27.9765673530      -22.8857093462  TIP3      6794            0.0000000000
     42633      6986  TIP3      H1            -10.0646415798       27.9257916225      -23.8419757297  TIP3      6794            0.0000000000
     42634      6986  TIP3      H2             -8.9344621971       28.1252883164      -22.8675493066  TIP3      6794            0.0000000000
     42635      6987  TIP3      OH2            -1.7634690070       23.8772333193      -23.5685580809  TIP3      6795            0.0000000000
     42636      6987  TIP3      H1             -1.1540550689       23.4578148198      -22.9521925455  TIP3      6795            0.0000000000
     42637      6987  TIP3      H2             -2.6011508310       23.4222752064      -23.4101317480  TIP3      6795            0.0000000000
     42638      6988  TIP3      OH2           -14.2058179639       22.7647940796      -22.4852704183  TIP3      6796            0.0000000000
     42639      6988  TIP3      H1            -13.7982406547       22.0638761343      -23.0327804321  TIP3      6796            0.0000000000
     42640      6988  TIP3      H2            -13.5482522259       22.9721174637      -21.8136832544  TIP3      6796            0.0000000000
     42641      6989  TIP3      OH2            18.9279066697       34.8154209706      -22.5334276880  TIP3      6797            0.0000000000
     42642      6989  TIP3      H1             19.0004241199       35.7747923335      -22.3701503828  TIP3      6797            0.0000000000
     42643      6989  TIP3      H2             19.8464227999       34.5626125886      -22.4941437920  TIP3      6797            0.0000000000
     42644      6990  TIP3      OH2             7.9834767220       24.0965100664      -23.2815564077  TIP3      6798            0.0000000000
     42645      6990  TIP3      H1              7.4652009151       23.6873549960      -22.5606900932  TIP3      6798            0.0000000000
     42646      6990  TIP3      H2              7.2652014654       24.4911067996      -23.8060963006  TIP3      6798            0.0000000000
     42647      6991  TIP3      OH2             6.5957708500       26.7419245641      -21.9006632631  TIP3      6799            0.0000000000
     42648      6991  TIP3      H1              6.0044374283       26.5293526910      -22.6379472898  TIP3      6799            0.0000000000
     42649      6991  TIP3      H2              7.3517442758       27.1433977599      -22.3686792960  TIP3      6799            0.0000000000
     42650      6992  TIP3      OH2             9.2377760740       34.2121965301      -23.6665308411  TIP3      6800            0.0000000000
     42651      6992  TIP3      H1              9.3410559223       33.4328763197      -24.2325204888  TIP3      6800            0.0000000000
     42652      6992  TIP3      H2              8.8753333605       33.7968757751      -22.8734744348  TIP3      6800            0.0000000000
     42653      6993  TIP3      OH2             4.5656990304       31.0340781760      -20.6875345509  TIP3      6801            0.0000000000
     42654      6993  TIP3      H1              3.8362555522       31.4016078988      -20.1706185960  TIP3      6801            0.0000000000
     42655      6993  TIP3      H2              5.0370453269       31.8094947130      -21.0092484763  TIP3      6801            0.0000000000
     42656      6994  TIP3      OH2            10.8384950596       35.4133854362      -20.4953612170  TIP3      6802            0.0000000000
     42657      6994  TIP3      H1             10.0166551128       35.9459684576      -20.4407311228  TIP3      6802            0.0000000000
     42658      6994  TIP3      H2             11.3657977659       35.9353987581      -21.1132283682  TIP3      6802            0.0000000000
     42659      6995  TIP3      OH2             8.3092538818      -36.5600488066      -20.4647638823  TIP3      6803            0.0000000000
     42660      6995  TIP3      H1              8.2731358686      -35.7730540832      -21.0275823667  TIP3      6803            0.0000000000
     42661      6995  TIP3      H2              7.8980881329      -36.2246913767      -19.6484242686  TIP3      6803            0.0000000000
     42662      6996  TIP3      OH2             6.9400962182       23.2064352465      -20.9257967172  TIP3      6804            0.0000000000
     42663      6996  TIP3      H1              6.7843492753       24.0807197324      -20.5214328554  TIP3      6804            0.0000000000
     42664      6996  TIP3      H2              7.7884471589       22.9951199201      -20.5516819475  TIP3      6804            0.0000000000
     42665      6997  TIP3      OH2             5.1914508289       33.6091568484      -21.8449621780  TIP3      6805            0.0000000000
     42666      6997  TIP3      H1              5.7354262871       34.3555599022      -21.5612263423  TIP3      6805            0.0000000000
     42667      6997  TIP3      H2              5.6744082425       33.1895330583      -22.5757894973  TIP3      6805            0.0000000000
     42668      6998  TIP3      OH2            11.2741027058       36.0306759285      -23.4650754272  TIP3      6806            0.0000000000
     42669      6998  TIP3      H1             10.5422608444       35.4183484511      -23.2758604254  TIP3      6806            0.0000000000
     42670      6998  TIP3      H2             11.9848019871       35.4849322210      -23.7892411279  TIP3      6806            0.0000000000
     42671      6999  TIP3      OH2             6.7812782715       31.8076127804      -23.4478942544  TIP3      6807            0.0000000000
     42672      6999  TIP3      H1              6.8128537275       30.9858365774      -22.9264856757  TIP3      6807            0.0000000000
     42673      6999  TIP3      H2              7.4411658337       31.6352560410      -24.1457996731  TIP3      6807            0.0000000000
     42674      7000  TIP3      OH2            12.1975531025       32.8849045736      -23.7210623523  TIP3      6808            0.0000000000
     42675      7000  TIP3      H1             11.8240611653       33.0370021075      -22.8489292335  TIP3      6808            0.0000000000
     42676      7000  TIP3      H2             11.9225266635       31.9520740149      -23.8950290669  TIP3      6808            0.0000000000
     42677      7001  TIP3      OH2             8.9960313939       27.9506880619      -22.8954987359  TIP3      6809            0.0000000000
     42678      7001  TIP3      H1              8.7881418919       27.9046272673      -23.8471560401  TIP3      6809            0.0000000000
     42679      7001  TIP3      H2              9.9310860456       28.1198795193      -22.8991539581  TIP3      6809            0.0000000000
     42680      7002  TIP3      OH2            18.3754472057       30.3532198315      -23.4413647480  TIP3      6810            0.0000000000
     42681      7002  TIP3      H1             18.0982952299       29.9751042554      -24.2909313450  TIP3      6810            0.0000000000
     42682      7002  TIP3      H2             18.4239897987       31.3059255066      -23.6686966077  TIP3      6810            0.0000000000
     42683      7003  TIP3      OH2            19.5449560579       29.1851842327      -21.2553860069  TIP3      6811            0.0000000000
     42684      7003  TIP3      H1             18.9717394632       29.5206899180      -21.9797726397  TIP3      6811            0.0000000000
     42685      7003  TIP3      H2             19.4194428460       29.8378006277      -20.5641447651  TIP3      6811            0.0000000000
     42686      7004  TIP3      OH2            17.8703475082       26.4204522423      -22.7445648294  TIP3      6812            0.0000000000
     42687      7004  TIP3      H1             17.9654139044       27.0896640423      -23.4240553602  TIP3      6812            0.0000000000
     42688      7004  TIP3      H2             17.7022290801       25.6027238222      -23.2285042013  TIP3      6812            0.0000000000
     42689      7005  TIP3      OH2            17.1185859117       23.8250084192      -23.6292455035  TIP3      6813            0.0000000000
     42690      7005  TIP3      H1             17.7248470904       23.4622000791      -22.9561897532  TIP3      6813            0.0000000000
     42691      7005  TIP3      H2             16.2515756838       23.4440729827      -23.4298630045  TIP3      6813            0.0000000000
     42692      7006  TIP3      OH2            19.1775690979       22.7474502767      -22.0428343906  TIP3      6814            0.0000000000
     42693      7006  TIP3      H1             19.5977952353       21.9896542857      -22.5124324851  TIP3      6814            0.0000000000
     42694      7006  TIP3      H2             19.8766112360       23.4006740531      -21.9763210731  TIP3      6814            0.0000000000
     42695      7007  TIP3      OH2            34.3460897520       29.7813912804      -23.0047481478  TIP3      6815            0.0000000000
     42696      7007  TIP3      H1             34.3046655792       29.5777112360      -23.9657353548  TIP3      6815            0.0000000000
     42697      7007  TIP3      H2             35.1818243102       30.2558643279      -22.9592901964  TIP3      6815            0.0000000000
     42698      7008  TIP3      OH2            29.9740692498       23.6158290468      -22.3863849684  TIP3      6816            0.0000000000
     42699      7008  TIP3      H1             29.6361936174       23.6572860669      -21.4865437934  TIP3      6816            0.0000000000
     42700      7008  TIP3      H2             29.6005670620       22.7825312712      -22.7289545908  TIP3      6816            0.0000000000
     42701      7009  TIP3      OH2            26.7886161588       24.0367094629      -23.3121864328  TIP3      6817            0.0000000000
     42702      7009  TIP3      H1             26.3339766412       23.6565588772      -22.5591537429  TIP3      6817            0.0000000000
     42703      7009  TIP3      H2             26.0974229818       24.5045405083      -23.8100416123  TIP3      6817            0.0000000000
     42704      7010  TIP3      OH2            32.6622359330       24.2360353559      -21.8226294796  TIP3      6818            0.0000000000
     42705      7010  TIP3      H1             31.6940885870       24.3317017258      -21.9305454435  TIP3      6818            0.0000000000
     42706      7010  TIP3      H2             32.8572655175       25.0527031774      -21.3870299579  TIP3      6818            0.0000000000
     42707      7011  TIP3      OH2            33.1036447259       25.9574322999      -19.5701801688  TIP3      6819            0.0000000000
     42708      7011  TIP3      H1             34.0685880896       25.8044354852      -19.6634456365  TIP3      6819            0.0000000000
     42709      7011  TIP3      H2             32.9929592015       26.5389599222      -20.3220434531  TIP3      6819            0.0000000000
     42710      7012  TIP3      OH2            22.0330794498       29.1742642982      -22.2380128005  TIP3      6820            0.0000000000
     42711      7012  TIP3      H1             22.6269054539       29.7958065625      -21.7856580040  TIP3      6820            0.0000000000
     42712      7012  TIP3      H2             21.1331547392       29.4284878880      -21.9422234932  TIP3      6820            0.0000000000
     42713      7013  TIP3      OH2            33.9546526042       33.0145337532      -22.1751055740  TIP3      6821            0.0000000000
     42714      7013  TIP3      H1             34.2842429490       32.7767277076      -21.3126299860  TIP3      6821            0.0000000000
     42715      7013  TIP3      H2             33.0030299046       33.0324797213      -22.0562210739  TIP3      6821            0.0000000000
     42716      7014  TIP3      OH2            28.1135763465       34.1600277447      -23.6592466864  TIP3      6822            0.0000000000
     42717      7014  TIP3      H1             28.1926365788       33.3940797476      -24.2584745735  TIP3      6822            0.0000000000
     42718      7014  TIP3      H2             27.7098020445       33.7270503108      -22.8929383790  TIP3      6822            0.0000000000
     42719      7015  TIP3      OH2            23.4484536952       31.0133762423      -20.7054216130  TIP3      6823            0.0000000000
     42720      7015  TIP3      H1             22.7521877602       31.4414884426      -20.2078821634  TIP3      6823            0.0000000000
     42721      7015  TIP3      H2             23.9308927986       31.8040428638      -20.9973505528  TIP3      6823            0.0000000000
     42722      7016  TIP3      OH2            23.9797764608       33.6954906459      -21.8898788831  TIP3      6824            0.0000000000
     42723      7016  TIP3      H1             24.6522928987       34.2906756890      -21.5502301816  TIP3      6824            0.0000000000
     42724      7016  TIP3      H2             24.4879068057       33.1784147780      -22.5378716232  TIP3      6824            0.0000000000
     42725      7017  TIP3      OH2            30.1272947421       36.0140075734      -23.5082194525  TIP3      6825            0.0000000000
     42726      7017  TIP3      H1             29.4164740619       35.4051300644      -23.2821497303  TIP3      6825            0.0000000000
     42727      7017  TIP3      H2             30.8836822317       35.5183163080      -23.7809617306  TIP3      6825            0.0000000000
     42728      7018  TIP3      OH2            34.7969988940       35.7457553887      -23.2678095367  TIP3      6826            0.0000000000
     42729      7018  TIP3      H1             35.0968357321       34.9902255038      -22.7535454147  TIP3      6826            0.0000000000
     42730      7018  TIP3      H2             35.5430545383       36.0148010597      -23.8219390786  TIP3      6826            0.0000000000
     42731      7019  TIP3      OH2            25.6127558485       31.8252464072      -23.4308991574  TIP3      6827            0.0000000000
     42732      7019  TIP3      H1             25.6921038157       30.9967738245      -22.9305109716  TIP3      6827            0.0000000000
     42733      7019  TIP3      H2             26.3017820424       31.6578259751      -24.1132366690  TIP3      6827            0.0000000000
     42734      7020  TIP3      OH2            35.9805371940       23.7939747218      -23.5916000081  TIP3      6828            0.0000000000
     42735      7020  TIP3      H1             36.5425160408       23.4709136520      -22.8933446947  TIP3      6828            0.0000000000
     42736      7020  TIP3      H2             35.0926531136       23.4407180552      -23.4144408222  TIP3      6828            0.0000000000
     42737      7021  SOD       SOD            -7.4984112666       35.0541781480      -31.9417552800  IONS      1               1.0000000000
     42738      7022  SOD       SOD            33.8265038291        0.0882926580      -32.0234988056  IONS      2               1.0000000000
     42739      7023  SOD       SOD           -14.0175828542        9.0034573883       41.8045429788  IONS      3               1.0000000000
     42740      7024  SOD       SOD           -27.3855310391       35.9461180050       28.3097547258  IONS      4               1.0000000000
     42741      7025  SOD       SOD           -29.3217736118       22.4005968394       35.9227067880  IONS      5               1.0000000000
     42742      7026  SOD       SOD            -1.1626994999      -35.7734996690       32.4514886431  IONS      6               1.0000000000
     42743      7027  SOD       SOD            15.9541162867      -31.0005288961       28.3374345145  IONS      7               1.0000000000
     42744      7028  SOD       SOD            13.5880690056       28.5573022069      -33.2741032076  IONS      8               1.0000000000
     42745      7029  SOD       SOD            -6.5736608550      -23.6584858559      -31.8195105604  IONS      9               1.0000000000
     42746      7030  SOD       SOD            36.3328891353       21.1422058321      -35.2957247249  IONS      10              1.0000000000
     42747      7031  SOD       SOD            26.7447662454      -32.9688271520       24.1994554563  IONS      11              1.0000000000
     42748      7032  SOD       SOD            -4.7318235309      -24.9129202284       39.0209407475  IONS      12              1.0000000000
     42749      7033  SOD       SOD            10.1250093439       -5.2462876889       40.3708826082  IONS      13              1.0000000000
     42750      7034  SOD       SOD            22.6518312631        1.9726537431       40.0560970612  IONS      14              1.0000000000
     42751      7035  SOD       SOD            28.1391691280       -2.3412113899      -40.8363589394  IONS      15              1.0000000000
     42752      7036  SOD       SOD           -25.8754666189      -21.3582158976       36.9935769855  IONS      16              1.0000000000
     42753      7037  SOD       SOD            32.9625474630      -11.4973060427      -37.8186932127  IONS      17              1.0000000000
     42754      7038  SOD       SOD            22.2351070593       34.4551837061       29.4858811188  IONS      18              1.0000000000
     42755      7039  SOD       SOD           -35.9079243095       21.3089233958       35.3595920418  IONS      19              1.0000000000
     42756      7040  SOD       SOD             1.1100709352      -36.7081173938       42.2906812431  IONS      20              1.0000000000
     42757      7041  SOD       SOD            24.1601991928      -13.5402116755      -42.1408640699  IONS      21              1.0000000000
     42758      7042  SOD       SOD             2.3306656838      -17.2407416669      -33.4696270157  IONS      22              1.0000000000
     42759      7043  SOD       SOD            -6.2182459814        7.3409102866       41.2634705183  IONS      23              1.0000000000
     42760      7044  SOD       SOD             3.0365507896      -13.9203591206       25.9436393804  IONS      24              1.0000000000
     42761      7045  SOD       SOD           -33.3525113275      -29.0205492267       41.4078086530  IONS      25              1.0000000000
     42762      7046  SOD       SOD            27.4685364061      -18.9579561425      -41.8928073345  IONS      26              1.0000000000
     42763      7047  SOD       SOD             2.1051288131      -31.8959535875      -41.5343620882  IONS      27              1.0000000000
     42764      7048  SOD       SOD           -25.4185086394      -16.4349201528       37.2626561896  IONS      28              1.0000000000
     42765      7049  SOD       SOD            -7.1714987208        2.9069321157      -38.5764047462  IONS      29              1.0000000000
     42766      7050  SOD       SOD            -2.5655568836       25.8609497876       34.8741427016  IONS      30              1.0000000000
     42767      7051  SOD       SOD            16.2457151630       10.9606454836      -39.0947365698  IONS      31              1.0000000000
     42768      7052  SOD       SOD            -9.1429724719      -10.3467049465       35.2256344155  IONS      32              1.0000000000
     42769      7053  SOD       SOD            -2.6009263504      -34.8330127797       42.7601861994  IONS      33              1.0000000000
     42770      7054  SOD       SOD            19.3614936257      -14.7478599857      -27.9013031813  IONS      34              1.0000000000
     42771      7055  SOD       SOD            36.1141043119      -36.2323226068       41.2135769748  IONS      35              1.0000000000
     42772      7056  SOD       SOD           -15.0879050350        8.5313638004       26.8311272512  IONS      36              1.0000000000
     42773      7057  SOD       SOD            22.5499884909      -36.8296913467      -26.7706427206  IONS      37              1.0000000000
     42774      7058  SOD       SOD           -27.6630258777      -29.9405805943      -34.7185885000  IONS      38              1.0000000000
     42775      7059  SOD       SOD             5.6254548562      -11.5836215490       35.5365657293  IONS      39              1.0000000000
     42776      7060  SOD       SOD            -6.6758462578        2.4786777588       30.6758270370  IONS      40              1.0000000000
     42777      7061  SOD       SOD           -30.8806961609        2.3235524921      -37.2851410419  IONS      41              1.0000000000
     42778      7062  CLA       CLA           -30.3984238509       12.8047705345       28.5870962472  IONS      42             -1.0000000000
     42779      7063  CLA       CLA            18.8950832458      -21.5907137918      -36.8508716785  IONS      43             -1.0000000000
     42780      7064  CLA       CLA           -36.8257237987       28.9580378812      -33.9156625792  IONS      44             -1.0000000000
     42781      7065  CLA       CLA           -22.8057966851       35.8972895328       32.1025151286  IONS      45             -1.0000000000
     42782      7066  CLA       CLA           -31.3013147832      -36.3723910596      -35.4691667080  IONS      46             -1.0000000000
     42783      7067  CLA       CLA           -19.6848131183       11.1868436402      -28.0105733707  IONS      47             -1.0000000000
     42784      7068  CLA       CLA             3.8937212664       30.9485912813      -28.4213423667  IONS      48             -1.0000000000
     42785      7069  CLA       CLA            17.6342419625       28.2832845025       38.3740783332  IONS      49             -1.0000000000
     42786      7070  CLA       CLA           -15.8917102970       -0.3286675275      -37.0738635223  IONS      50             -1.0000000000
     42787      7071  CLA       CLA           -13.7203777970      -31.1160952866       42.2870962505  IONS      51             -1.0000000000
     42788      7072  CLA       CLA            -8.4384410080       10.1748789338       22.4658542002  IONS      52             -1.0000000000
     42789      7073  CLA       CLA           -35.6142293359      -34.6839789332      -18.5266233367  IONS      53             -1.0000000000
     42790      7074  CLA       CLA            14.4181756899       12.5207403410       38.2095177359  IONS      54             -1.0000000000
     42791      7075  CLA       CLA           -15.6942467243      -32.0472758916       24.7614798048  IONS      55             -1.0000000000
     42792      7076  CLA       CLA            -5.7324578559      -30.5811830380      -29.2941175530  IONS      56             -1.0000000000
     42793      7077  CLA       CLA           -26.4120411642      -18.9835507459      -35.2563420284  IONS      57             -1.0000000000
     42794      7078  CLA       CLA           -12.5682454368       -9.3874654875       32.8382195916  IONS      58             -1.0000000000
