* GENERATED BY CHARMM-GUI (HTTP://WWW.CHARMM-GUI.ORG) V3.7 ON OCT, 22. 2024. JOB
* GET A DIFFERENT CONFORMATION FOR LIPIDS PENETRATING PROTEIN / CHOL
*  DATE:    10/22/24     11:18: 6      CREATED BY USER: apache
*
       318  EXT
         1         1  TIP3      OH2            -1.3397641413        1.7326497172       18.7911700000  TIP3      1               0.0000000000
         2         1  TIP3      H1             -0.8225026944        2.2378887300       18.1639500000  TIP3      1               0.0000000000
         3         1  TIP3      H2             -2.2089730507        1.6753389191       18.3944100000  TIP3      1               0.0000000000
         4         2  TIP3      OH2            -5.2794953506       -7.8252396445       19.7264450000  TIP3      2               0.0000000000
         5         2  TIP3      H1             -5.0440381051       -6.9591627368       19.3937450000  TIP3      2               0.0000000000
         6         2  TIP3      H2             -4.4722298687       -8.1599300835       20.1169850000  TIP3      2               0.0000000000
         7         3  TIP3      OH2            -5.5750667857       -3.1278035363       20.5224250000  TIP3      3               0.0000000000
         8         3  TIP3      H1             -5.0809605052       -2.5273078510       21.0805350000  TIP3      3               0.0000000000
         9         3  TIP3      H2             -5.6225401131       -2.6841869115       19.6755550000  TIP3      3               0.0000000000
        10         4  TIP3      OH2            -9.8875128919        0.7440038325       19.7491800000  TIP3      4               0.0000000000
        11         4  TIP3      H1            -10.0834146973       -0.0817617321       19.3064800000  TIP3      4               0.0000000000
        12         4  TIP3      H2             -9.1192834251        0.5516947903       20.2868200000  TIP3      4               0.0000000000
        13         5  TIP3      OH2           -12.6506188234       -0.6806958965       20.3887000000  TIP3      5               0.0000000000
        14         5  TIP3      H1            -12.0196276197       -1.1360373390       19.8312500000  TIP3      5               0.0000000000
        15         5  TIP3      H2            -12.9582379295       -1.3503579200       20.9995700000  TIP3      5               0.0000000000
        16         6  TIP3      OH2            -9.6216478307       -3.4206715919       20.2826000000  TIP3      6               0.0000000000
        17         6  TIP3      H1             -9.4267419661       -2.9862567962       21.1129800000  TIP3      6               0.0000000000
        18         6  TIP3      H2             -9.6315913657       -4.3536368079       20.4963800000  TIP3      6               0.0000000000
        19         7  TIP3      OH2            -6.9507596381       12.7930882861       17.5872250000  TIP3      7               0.0000000000
        20         7  TIP3      H1             -6.7641205402       13.4742836638       18.2332750000  TIP3      7               0.0000000000
        21         7  TIP3      H2             -7.7894232958       12.4236033392       17.8635250000  TIP3      7               0.0000000000
        22         8  TIP3      OH2            -6.7799318401       10.8422306797       20.5813850000  TIP3      8               0.0000000000
        23         8  TIP3      H1             -7.0416662445        9.9659708164       20.8640450000  TIP3      8               0.0000000000
        24         8  TIP3      H2             -6.1830594987       10.6897802006       19.8487650000  TIP3      8               0.0000000000
        25         9  TIP3      OH2             4.5078759067       13.4236419529       20.2458800000  TIP3      9               0.0000000000
        26         9  TIP3      H1              4.5290223464       14.3169488080       20.5891000000  TIP3      9               0.0000000000
        27         9  TIP3      H2              3.7176553121       13.3923940093       19.7066200000  TIP3      9               0.0000000000
        28        10  TIP3      OH2            -3.4772940121      -11.8262902695       20.3542600000  TIP3      10              0.0000000000
        29        10  TIP3      H1             -4.2855527624      -11.3137524421       20.3706000000  TIP3      10              0.0000000000
        30        10  TIP3      H2             -3.1820837654      -11.8379741363       21.2647200000  TIP3      10              0.0000000000
        31        11  TIP3      OH2           -11.9417467903       -7.1378358671       19.4743600000  TIP3      11              0.0000000000
        32        11  TIP3      H1            -11.3790523501       -7.4378630060       20.1882100000  TIP3      11              0.0000000000
        33        11  TIP3      H2            -12.0554512829       -7.9085821304       18.9182500000  TIP3      11              0.0000000000
        34        12  TIP3      OH2             7.7450721437      -16.2781528384       19.9965550000  TIP3      12              0.0000000000
        35        12  TIP3      H1              8.1261839729      -15.4220153195       19.8015550000  TIP3      12              0.0000000000
        36        12  TIP3      H2              6.9369714941      -16.0790488447       20.4693650000  TIP3      12              0.0000000000
        37        13  TIP3      OH2            11.7599406680      -15.7607165340       20.3740150000  TIP3      13              0.0000000000
        38        13  TIP3      H1             11.4049236383      -14.9508280062       20.7404550000  TIP3      13              0.0000000000
        39        13  TIP3      H2             12.6036661847      -15.5056423729       20.0007950000  TIP3      13              0.0000000000
        40        14  TIP3      OH2           -18.1169956791        1.6087707157       21.6699600000  TIP3      14              0.0000000000
        41        14  TIP3      H1            -17.5933371619        1.0856194879       21.0630600000  TIP3      14              0.0000000000
        42        14  TIP3      H2            -17.6355223373        2.4317261055       21.7545100000  TIP3      14              0.0000000000
        43        15  TIP3      OH2            -8.1446009054       19.6638767827       19.3366400000  TIP3      15              0.0000000000
        44        15  TIP3      H1             -8.7505874099       19.4891632294       20.0567100000  TIP3      15              0.0000000000
        45        15  TIP3      H2             -7.7100088392       20.4808031344       19.5815800000  TIP3      15              0.0000000000
        46        16  TIP3      OH2           -18.4451679324       11.8261205698       19.9822250000  TIP3      16              0.0000000000
        47        16  TIP3      H1            -17.8430047286       11.1955700833       20.3772350000  TIP3      16              0.0000000000
        48        16  TIP3      H2            -19.0965188721       11.2871930682       19.5333150000  TIP3      16              0.0000000000
        49        17  TIP3      OH2           -22.9381561855       10.1673711757       20.0424150000  TIP3      17              0.0000000000
        50        17  TIP3      H1            -23.3729346811       10.6110629798       20.7706550000  TIP3      17              0.0000000000
        51        17  TIP3      H2            -22.9517629445        9.2410527618       20.2832250000  TIP3      17              0.0000000000
        52        18  TIP3      OH2           -20.4621317836        9.6456195551       21.8833050000  TIP3      18              0.0000000000
        53        18  TIP3      H1            -20.9652910278        8.8433007720       22.0224050000  TIP3      18              0.0000000000
        54        18  TIP3      H2            -19.7171585154        9.3719562533       21.3481750000  TIP3      18              0.0000000000
        55        19  TIP3      OH2             9.5593076858      -19.3730665921       18.9643200000  TIP3      19              0.0000000000
        56        19  TIP3      H1              8.9226857883      -18.7058164298       18.7079300000  TIP3      19              0.0000000000
        57        19  TIP3      H2             10.4023841890      -19.0241046891       18.6750700000  TIP3      19              0.0000000000
        58        20  TIP3      OH2             8.3750424387      -21.0366140810       21.0452900000  TIP3      20              0.0000000000
        59        20  TIP3      H1              8.0787990305      -21.8029778824       20.5542000000  TIP3      20              0.0000000000
        60        20  TIP3      H2              8.8646006189      -20.5173433063       20.4073900000  TIP3      20              0.0000000000
        61        21  TIP3      OH2             9.1366868286      -25.2742848512       19.3248500000  TIP3      21              0.0000000000
        62        21  TIP3      H1              9.3806605596      -25.4556755311       20.2324900000  TIP3      21              0.0000000000
        63        21  TIP3      H2              8.8523884159      -26.1203716046       18.9791000000  TIP3      21              0.0000000000
        64        22  TIP3      OH2           -24.5399353202        1.7070477861       19.8485400000  TIP3      22              0.0000000000
        65        22  TIP3      H1            -23.5857286751        1.6466268360       19.8030400000  TIP3      22              0.0000000000
        66        22  TIP3      H2            -24.7226547491        1.9373603399       20.7594700000  TIP3      22              0.0000000000
        67        23  TIP3      OH2           -14.5997949502       21.7875891237       20.6870650000  TIP3      23              0.0000000000
        68        23  TIP3      H1            -15.2447886786       21.1359987596       20.9621050000  TIP3      23              0.0000000000
        69        23  TIP3      H2            -14.0573144883       21.9305102875       21.4626450000  TIP3      23              0.0000000000
        70        24  TIP3      OH2            -6.4196385689       24.5516893400       21.2066750000  TIP3      24            -26.7400000000
        71        24  TIP3      H1             -7.3125546297       24.7806740674       21.4645350000  TIP3      24            -27.1800000000
        72        24  TIP3      H2             -6.4497994635       24.5070814950       20.2509950000  TIP3      24            -26.0400000000
        73        25  TIP3      OH2            -4.9908672668       27.4478968204       20.4029050000  TIP3      25              0.0000000000
        74        25  TIP3      H1             -5.6075220891       27.5942033938       21.1202350000  TIP3      25              0.0000000000
        75        25  TIP3      H2             -4.3340376270       28.1363716988       20.5068950000  TIP3      25              0.0000000000
        76        26  TIP3      OH2            -5.0202174548       22.9084501645       19.1866550000  TIP3      26              0.0000000000
        77        26  TIP3      H1             -5.1205205107       23.8509419692       19.0529250000  TIP3      26              0.0000000000
        78        26  TIP3      H2             -4.0948855330       22.7382154223       19.0105750000  TIP3      26              0.0000000000
        79        27  TIP3      OH2           -28.8195643506        4.6476192256       20.6870650000  TIP3      27              0.0000000000
        80        27  TIP3      H1            -28.8819215965        3.7329069833       20.9621050000  TIP3      27              0.0000000000
        81        27  TIP3      H2            -28.5023663800        5.1103253504       21.4626450000  TIP3      27              0.0000000000
        82        28  TIP3      OH2            -1.8872728591      -28.8883664476       19.6660200000  TIP3      28              0.0000000000
        83        28  TIP3      H1             -1.2186491652      -29.1866200673       20.2826400000  TIP3      28              0.0000000000
        84        28  TIP3      H2             -2.6908689200      -28.8477622337       20.1844900000  TIP3      28              0.0000000000
        85        29  TIP3      OH2            -7.6589527929      -31.2295299841       19.9980800000  TIP3      29              0.0000000000
        86        29  TIP3      H1             -6.8334577365      -31.3045216274       19.5193600000  TIP3      29              0.0000000000
        87        29  TIP3      H2             -7.3976659687      -31.0328944580       20.8976800000  TIP3      29              0.0000000000
        88        30  TIP3      OH2             5.4280635795      -31.7640568968       19.5649200000  TIP3      30              0.0000000000
        89        30  TIP3      H1              5.2751701375      -31.1512793393       20.2842000000  TIP3      30              0.0000000000
        90        30  TIP3      H2              5.2658557617      -32.6269347289       19.9461800000  TIP3      30              0.0000000000
        91        31  TIP3      OH2           -10.0794882163       31.9102930806       19.8145400000  TIP3      31              0.0000000000
        92        31  TIP3      H1             -9.9146769771       30.9782339792       19.9571300000  TIP3      31              0.0000000000
        93        31  TIP3      H2             -9.2856652455       32.2317187746       19.3870400000  TIP3      31              0.0000000000
        94        32  TIP3      OH2           -13.6101440667       31.7816193440       20.7332700000  TIP3      32              0.0000000000
        95        32  TIP3      H1            -14.4269117333       32.2795711646       20.6993200000  TIP3      32              0.0000000000
        96        32  TIP3      H2            -13.5361340704       31.3825965539       19.8663500000  TIP3      32              0.0000000000
        97        33  TIP3      OH2           -18.9568766628       24.1113574214       21.5512450000  TIP3      33              0.0000000000
        98        33  TIP3      H1            -19.3950805149       24.8293176458       21.0943550000  TIP3      33              0.0000000000
        99        33  TIP3      H2            -19.6564497557       23.4871630785       21.7441250000  TIP3      33              0.0000000000
       100        34  TIP3      OH2           -22.1909904544       26.0838286997       21.0183950000  TIP3      34              0.0000000000
       101        34  TIP3      H1            -22.5958642245       25.2842609173       20.6822450000  TIP3      34              0.0000000000
       102        34  TIP3      H2            -22.8865581583       26.7401901884       20.9783350000  TIP3      34              0.0000000000
       103        35  TIP3      OH2           -19.0266985456       27.9875465173       20.7107150000  TIP3      35              0.0000000000
       104        35  TIP3      H1            -18.3457135551       28.3457133711       20.1413250000  TIP3      35              0.0000000000
       105        35  TIP3      H2            -19.4870571476       27.3513646878       20.1633850000  TIP3      35              0.0000000000
       106        36  TIP3      OH2           -21.2554016601       23.6000033705       19.3482550000  TIP3      36              0.0000000000
       107        36  TIP3      H1            -21.7600957377       22.9614686502       18.8444950000  TIP3      36              0.0000000000
       108        36  TIP3      H2            -21.2357474607       23.2435357998       20.2363850000  TIP3      36              0.0000000000
       109        37  TIP3      OH2            12.1588999616       28.2427808094       20.0761900000  TIP3      37              0.0000000000
       110        37  TIP3      H1             12.9896220331       28.6320826711       19.8031100000  TIP3      37              0.0000000000
       111        37  TIP3      H2             11.5967326754       28.9916229326       20.2747700000  TIP3      37              0.0000000000
       112        38  TIP3      OH2           -31.0378771769      -14.7014813974       21.3010300000  TIP3      38              0.0000000000
       113        38  TIP3      H1            -31.2657611930      -14.1224529445       20.5736900000  TIP3      38              0.0000000000
       114        38  TIP3      H2            -31.7241927884      -15.3687139745       21.3007200000  TIP3      38              0.0000000000
       115        39  TIP3      OH2           -32.9243815940      -11.4888702289       19.4045900000  TIP3      39              0.0000000000
       116        39  TIP3      H1            -32.5112485130      -11.5526636822       20.2656900000  TIP3      39              0.0000000000
       117        39  TIP3      H2            -32.5110323210      -12.1808116337       18.8882600000  TIP3      39              0.0000000000
       118        40  TIP3      OH2           -28.3765411832      -12.4512575403       19.9397900000  TIP3      40              0.0000000000
       119        40  TIP3      H1            -28.8230672371      -11.7569222890       20.4242900000  TIP3      40              0.0000000000
       120        40  TIP3      H2            -27.5077899693      -12.5016230581       20.3385000000  TIP3      40              0.0000000000
       121        41  TIP3      OH2           -36.3907038419       11.3243926647       20.5181500000  TIP3      41              0.0000000000
       122        41  TIP3      H1            -37.3473004106       11.3188599030       20.5517000000  TIP3      41              0.0000000000
       123        41  TIP3      H2            -36.1487165848       12.2282281338       20.7200000000  TIP3      41              0.0000000000
       124        42  TIP3      OH2           -35.7998946526       16.8628357052       21.2119750000  TIP3      42              0.0000000000
       125        42  TIP3      H1            -34.9120675238       17.1236792028       20.9671050000  TIP3      42              0.0000000000
       126        42  TIP3      H2            -36.2427323860       17.6853726407       21.4206750000  TIP3      42              0.0000000000
       127        43  TIP3      OH2           -37.4687618388       18.1748062191       19.2245650000  TIP3      43              0.0000000000
       128        43  TIP3      H1            -36.5840047698       18.3971181229       18.9347450000  TIP3      43              0.0000000000
       129        43  TIP3      H2            -37.4860185685       17.2177831604       19.2303950000  TIP3      43              0.0000000000
       130        44  TIP3      OH2           -34.4257051855       21.1848794458       18.2930050000  TIP3      44              0.0000000000
       131        44  TIP3      H1            -34.7552807326       20.3143767694       18.5162450000  TIP3      44              0.0000000000
       132        44  TIP3      H2            -34.3743529279       21.6442860829       19.1311750000  TIP3      44              0.0000000000
       133        45  TIP3      OH2           -21.6901423841       30.7541181413       18.6226400000  TIP3      45              0.0000000000
       134        45  TIP3      H1            -22.6204002158       30.9037592608       18.4539000000  TIP3      45              0.0000000000
       135        45  TIP3      H2            -21.2854434894       31.6150222244       18.5163100000  TIP3      45              0.0000000000
       136        46  TIP3      OH2           -26.5091170761       31.2807307336       20.4121200000  TIP3      46            -24.6700000000
       137        46  TIP3      H1            -26.9328182552       32.0294884816       20.8317400000  TIP3      46              0.0000000000
       138        46  TIP3      H2            -26.7252339251       30.5366601600       20.9741700000  TIP3      46              0.0000000000
       139        47  TIP3      OH2           -22.6698421336      -32.2206353445       20.1098550000  TIP3      47              0.0000000000
       140        47  TIP3      H1            -21.8535112537      -31.9387921751       19.6970450000  TIP3      47              0.0000000000
       141        47  TIP3      H2            -22.4782114350      -32.2170926126       21.0476750000  TIP3      47              0.0000000000
       142        48  TIP3      OH2            28.7173179411      -32.6698055937       19.9484050000  TIP3      48              0.0000000000
       143        48  TIP3      H1             28.6421337869      -32.4970928222       20.8868850000  TIP3      48              0.0000000000
       144        48  TIP3      H2             28.3558887019      -31.8880007936       19.5308050000  TIP3      48              0.0000000000
       145        49  TIP3      OH2            30.6814166375      -34.7231311549       20.0300750000  TIP3      49              0.0000000000
       146        49  TIP3      H1             30.1600605206      -33.9206129875       20.0496150000  TIP3      49              0.0000000000
       147        49  TIP3      H2             30.1693422687      -35.3289877308       19.4943950000  TIP3      49              0.0000000000
       148        50  TIP3      OH2            26.4750474222      -37.1489124729       20.3737250000  TIP3      50              0.0000000000
       149        50  TIP3      H1             26.9542867745      -37.2392659476       21.1973650000  TIP3      50              0.0000000000
       150        50  TIP3      H2             25.6373034112      -36.7599143160       20.6249450000  TIP3      50              0.0000000000
       151        51  TIP3      OH2             5.1152034869        0.5993505929      -19.9629000000  TIP3      51              0.0000000000
       152        51  TIP3      H1              5.4018069277        0.0196355216      -20.6686100000  TIP3      51              0.0000000000
       153        51  TIP3      H2              4.7343466339        1.3540075652      -20.4119900000  TIP3      51              0.0000000000
       154        52  TIP3      OH2             1.7242372562        1.5168848316      -20.9078000000  TIP3      52              0.0000000000
       155        52  TIP3      H1              2.4602558371        2.1269328355      -20.9564600000  TIP3      52              0.0000000000
       156        52  TIP3      H2              1.9515439600        0.9231936243      -20.1921900000  TIP3      52              0.0000000000
       157        53  TIP3      OH2             5.2107452837        5.3193366507      -18.9374600000  TIP3      53              0.0000000000
       158        53  TIP3      H1              4.4779554557        5.8566329356      -18.6365300000  TIP3      53              0.0000000000
       159        53  TIP3      H2              4.7983347827        4.5620924027      -19.3530600000  TIP3      53              0.0000000000
       160        54  TIP3      OH2             7.3000262690       13.6174163283      -20.3602300000  TIP3      54              0.0000000000
       161        54  TIP3      H1              7.1880826600       13.6890187786      -21.3081700000  TIP3      54              0.0000000000
       162        54  TIP3      H2              6.5299317318       14.0523023810      -19.9941100000  TIP3      54              0.0000000000
       163        55  TIP3      OH2             2.3957925492       14.6834026075      -19.9187700000  TIP3      55              0.0000000000
       164        55  TIP3      H1              1.6074958799       14.3208845046      -19.5145300000  TIP3      55              0.0000000000
       165        55  TIP3      H2              2.0690251261       15.3297004677      -20.5446600000  TIP3      55              0.0000000000
       166        56  TIP3      OH2             5.0226914610       15.9282969281      -21.4526100000  TIP3      56              0.0000000000
       167        56  TIP3      H1              4.2864007766       16.5101371387      -21.6412300000  TIP3      56              0.0000000000
       168        56  TIP3      H2              4.6376064388       15.0521625881      -21.4342200000  TIP3      56              0.0000000000
       169        57  TIP3      OH2             4.4754535501       13.2782108061      -21.6396000000  TIP3      57              0.0000000000
       170        57  TIP3      H1              3.9151189405       13.3617681984      -20.8680700000  TIP3      57              0.0000000000
       171        57  TIP3      H2              3.9140064891       12.8743934513      -22.3013700000  TIP3      57              0.0000000000
       172        58  TIP3      OH2            -2.4188066883       15.4842961283      -21.3593600000  TIP3      58              0.0000000000
       173        58  TIP3      H1             -2.6977074551       16.2495691630      -21.8621500000  TIP3      58              0.0000000000
       174        58  TIP3      H2             -3.2046311082       14.9418877737      -21.2921500000  TIP3      58              0.0000000000
       175        59  TIP3      OH2            -3.7295277927       13.6419944740      -18.5377100000  TIP3      59            -22.2800000000
       176        59  TIP3      H1             -3.9963731718       13.4746168789      -19.4416000000  TIP3      59              0.0000000000
       177        59  TIP3      H2             -2.8966643654       13.1796620028      -18.4438300000  TIP3      59              0.0000000000
       178        60  TIP3      OH2            -0.2228836297       13.9482686826      -20.4248100000  TIP3      60              0.0000000000
       179        60  TIP3      H1             -0.8505291106       14.5776045252      -20.7801000000  TIP3      60              0.0000000000
       180        60  TIP3      H2              0.4701207076       13.9025299018      -21.0835100000  TIP3      60              0.0000000000
       181        61  TIP3      OH2             0.7019334703       17.6077887268      -18.3694200000  TIP3      61              0.0000000000
       182        61  TIP3      H1             -0.2469085072       17.5038788995      -18.2977400000  TIP3      61              0.0000000000
       183        61  TIP3      H2              1.0244185420       16.7307068706      -18.5766900000  TIP3      61              0.0000000000
       184        62  TIP3      OH2            -8.1346801434       20.0972070730      -19.7239550000  TIP3      62              0.0000000000
       185        62  TIP3      H1             -8.7402080699       19.6501333651      -19.1326050000  TIP3      62              0.0000000000
       186        62  TIP3      H2             -8.5051390859       20.9735052841      -19.8292550000  TIP3      62              0.0000000000
       187        63  TIP3      OH2           -12.1252029392       18.1925945044      -20.4986250000  TIP3      63              0.0000000000
       188        63  TIP3      H1            -12.6163965588       17.3746008919      -20.4222150000  TIP3      63              0.0000000000
       189        63  TIP3      H2            -12.7150925810       18.8603208258      -20.1487650000  TIP3      63              0.0000000000
       190        64  TIP3      OH2            13.8725342591      -16.4618192705      -21.9628600000  TIP3      64             22.8300000000
       191        64  TIP3      H1             14.3634954731      -17.2736381070      -22.0899300000  TIP3      64              0.0000000000
       192        64  TIP3      H2             14.4356272592      -15.9257193323      -21.4045100000  TIP3      64              0.0000000000
       193        65  TIP3      OH2            16.2397155702      -19.8425084852      -19.4369400000  TIP3      65              0.0000000000
       194        65  TIP3      H1             16.4774537858      -20.2033910667      -20.2910300000  TIP3      65              0.0000000000
       195        65  TIP3      H2             16.8800382232      -20.2165520877      -18.8317000000  TIP3      65              0.0000000000
       196        66  TIP3      OH2            13.3657719494      -20.3505368098      -18.7947200000  TIP3      66              0.0000000000
       197        66  TIP3      H1             14.2261362430      -20.7654605555      -18.7326700000  TIP3      66              0.0000000000
       198        66  TIP3      H2             12.7440244561      -21.0673026983      -18.6686200000  TIP3      66              0.0000000000
       199        67  TIP3      OH2            24.8027257916        3.1490905267      -19.4433500000  TIP3      67            -31.2400000000
       200        67  TIP3      H1             24.3378535830        3.9485012877      -19.1962300000  TIP3      67            -31.3700000000
       201        67  TIP3      H2             24.1546795167        2.4524768644      -19.3385300000  TIP3      67            -32.1200000000
       202        68  TIP3      OH2            11.7075488013      -21.3385963666      -19.9039800000  TIP3      68              0.0000000000
       203        68  TIP3      H1             11.9501098266      -21.1847288993      -20.8170600000  TIP3      68              0.0000000000
       204        68  TIP3      H2             12.3664170709      -20.8637694636      -19.3973500000  TIP3      68              0.0000000000
       205        69  TIP3      OH2            10.9064033298      -26.4117922328      -18.6023300000  TIP3      69              0.0000000000
       206        69  TIP3      H1             10.7292517852      -25.5954042783      -19.0696100000  TIP3      69              0.0000000000
       207        69  TIP3      H2             10.0633762165      -26.6583349138      -18.2218600000  TIP3      69              0.0000000000
       208        70  TIP3      OH2             7.9494720050      -23.6755738021      -20.7772800000  TIP3      70              0.0000000000
       209        70  TIP3      H1              7.3140104910      -23.8313009647      -20.0785800000  TIP3      70              0.0000000000
       210        70  TIP3      H2              8.7064760740      -23.2942529732      -20.3325700000  TIP3      70              0.0000000000
       211        71  TIP3      OH2            23.2267374721      -14.8757262008      -21.1681550000  TIP3      71              0.0000000000
       212        71  TIP3      H1             23.0964575204      -14.8864299938      -20.2199250000  TIP3      71              0.0000000000
       213        71  TIP3      H2             23.7005227806      -15.6863019551      -21.3544750000  TIP3      71              0.0000000000
       214        72  TIP3      OH2            20.8409622856      -12.9760246261      -18.7758850000  TIP3      72              0.0000000000
       215        72  TIP3      H1             21.4414587750      -12.2335128415      -18.7102050000  TIP3      72              0.0000000000
       216        72  TIP3      H2             21.3581682230      -13.7289781843      -18.4898950000  TIP3      72              0.0000000000
       217        73  TIP3      OH2             5.2349554323      -31.6919697224      -18.8447600000  TIP3      73              0.0000000000
       218        73  TIP3      H1              5.8801284624      -32.0067256179      -19.4779400000  TIP3      73              0.0000000000
       219        73  TIP3      H2              5.5570980900      -30.8296394849      -18.5823800000  TIP3      73              0.0000000000
       220        74  TIP3      OH2             7.4068607860      -27.2203964661      -19.8035900000  TIP3      74              0.0000000000
       221        74  TIP3      H1              7.0504044376      -28.0652652165      -19.5290600000  TIP3      74              0.0000000000
       222        74  TIP3      H2              7.8792348983      -26.8983409421      -19.0358800000  TIP3      74              0.0000000000
       223        75  TIP3      OH2             4.8665479031      -26.9419757241      -21.5966600000  TIP3      75              0.0000000000
       224        75  TIP3      H1              4.2291485762      -26.2313244729      -21.5263900000  TIP3      75              0.0000000000
       225        75  TIP3      H2              5.4041915234      -26.7081768408      -22.3533000000  TIP3      75              0.0000000000
       226        76  TIP3      OH2             6.9538871583       29.4676471400      -20.7094250000  TIP3      76              0.0000000000
       227        76  TIP3      H1              6.2723230142       29.2125166880      -20.0876450000  TIP3      76              0.0000000000
       228        76  TIP3      H2              7.7650144663       29.1326689904      -20.3272050000  TIP3      76              0.0000000000
       229        77  TIP3      OH2             5.9081866893       27.0364679432      -19.0864850000  TIP3      77              0.0000000000
       230        77  TIP3      H1              6.7081042800       27.5171236349      -18.8735450000  TIP3      77              0.0000000000
       231        77  TIP3      H2              6.1022692503       26.6039488231      -19.9180350000  TIP3      77              0.0000000000
       232        78  TIP3      OH2            28.8716681817       -9.8107751641      -21.1602200000  TIP3      78              0.0000000000
       233        78  TIP3      H1             28.1525076241       -9.3272822453      -21.5667700000  TIP3      78              0.0000000000
       234        78  TIP3      H2             28.8484189733       -9.5470008082      -20.2403700000  TIP3      78              0.0000000000
       235        79  TIP3      OH2            25.7960591467       -9.7216404700      -20.1442800000  TIP3      79              0.0000000000
       236        79  TIP3      H1             25.4390349269      -10.4998506160      -20.5722200000  TIP3      79              0.0000000000
       237        79  TIP3      H2             25.0313532623       -9.1750695827      -19.9634300000  TIP3      79              0.0000000000
       238        80  TIP3      OH2            27.6365166665       -6.7118010783      -18.3007400000  TIP3      80              0.0000000000
       239        80  TIP3      H1             27.8881634494       -7.5295137168      -18.7299900000  TIP3      80              0.0000000000
       240        80  TIP3      H2             28.4370999520       -6.4097293594      -17.8717100000  TIP3      80              0.0000000000
       241        81  TIP3      OH2           -19.7073523148      -25.3657252436      -20.6796600000  TIP3      81              0.0000000000
       242        81  TIP3      H1            -19.5437585845      -25.0513026651      -19.7905000000  TIP3      81              0.0000000000
       243        81  TIP3      H2            -20.1046346764      -26.2283161833      -20.5598800000  TIP3      81              0.0000000000
       244        82  TIP3      OH2            27.8251962076       12.5850159190      -20.2458800000  TIP3      82              0.0000000000
       245        82  TIP3      H1             28.7081962338       12.7219657747      -20.5891000000  TIP3      82              0.0000000000
       246        82  TIP3      H2             27.8968109712       11.7974269731      -19.7066200000  TIP3      82              0.0000000000
       247        83  TIP3      OH2           -22.8686885053       20.4167504465      -19.1116350000  TIP3      83              0.0000000000
       248        83  TIP3      H1            -22.4344830082       21.2060525053      -19.4352150000  TIP3      83              0.0000000000
       249        83  TIP3      H2            -22.4135385451       19.6964969641      -19.5478850000  TIP3      83              0.0000000000
       250        84  TIP3      OH2           -27.3267173215       22.6167816197      -20.3449550000  TIP3      84              0.0000000000
       251        84  TIP3      H1            -27.8126068127       21.7979975791      -20.4435550000  TIP3      84              0.0000000000
       252        84  TIP3      H2            -26.7044578450       22.4430211222      -19.6386850000  TIP3      84              0.0000000000
       253        85  TIP3      OH2           -25.2455147821      -19.5637760769      -19.8620000000  TIP3      85              0.0000000000
       254        85  TIP3      H1            -24.7681744592      -19.6401517394      -20.6881700000  TIP3      85              0.0000000000
       255        85  TIP3      H2            -25.0165799274      -18.6949126893      -19.5320100000  TIP3      85              0.0000000000
       256        86  TIP3      OH2           -27.8827982014      -23.7788578253      -19.6328900000  TIP3      86            -36.6800000000
       257        86  TIP3      H1            -27.1471976694      -23.1866649143      -19.4766000000  TIP3      86            -36.8500000000
       258        86  TIP3      H2            -28.4028350238      -23.7325320186      -18.8306200000  TIP3      86            -36.6400000000
       259        87  TIP3      OH2            31.6259531686       -2.6912587644      -19.4653800000  TIP3      87              0.0000000000
       260        87  TIP3      H1             31.3220281245       -2.1657236637      -20.2054300000  TIP3      87              0.0000000000
       261        87  TIP3      H2             32.2617933196       -2.1320717151      -19.0190000000  TIP3      87              0.0000000000
       262        88  TIP3      OH2            36.0635449678       -5.7935256679      -20.2483200000  TIP3      88              0.0000000000
       263        88  TIP3      H1             37.0114853460       -5.8957315085      -20.3331500000  TIP3      88              0.0000000000
       264        88  TIP3      H2             35.7002254073       -6.5834444710      -20.6486400000  TIP3      88              0.0000000000
       265        89  TIP3      OH2            31.3421678473       -5.1967003081      -18.5564600000  TIP3      89              0.0000000000
       266        89  TIP3      H1             31.2667546295       -4.2702224603      -18.7849000000  TIP3      89              0.0000000000
       267        89  TIP3      H2             32.2717193868       -5.3218654913      -18.3654000000  TIP3      89              0.0000000000
       268        90  TIP3      OH2             6.3122337549       34.2884185104      -19.3166050000  TIP3      90             23.1300000000
       269        90  TIP3      H1              6.0416288658       33.4488313401      -18.9449850000  TIP3      90              0.0000000000
       270        90  TIP3      H2              6.9253639178       34.0557787569      -20.0138750000  TIP3      90              0.0000000000
       271        91  TIP3      OH2             4.7774128124       38.1811331450      -20.7044450000  TIP3      91              0.0000000000
       272        91  TIP3      H1              4.8374520416       37.3963549456      -20.1596950000  TIP3      91              0.0000000000
       273        91  TIP3      H2              4.6677429809       38.8986234829      -20.0804150000  TIP3      91              0.0000000000
       274        92  TIP3      OH2           -17.7723589340       32.0859287065      -20.6817850000  TIP3      92              0.0000000000
       275        92  TIP3      H1            -18.0112376718       31.2993353979      -21.1721350000  TIP3      92              0.0000000000
       276        92  TIP3      H2            -17.0801888312       31.7970286372      -20.0870750000  TIP3      92              0.0000000000
       277        93  TIP3      OH2           -16.5134448234       35.6596518610      -20.6316150000  TIP3      93              0.0000000000
       278        93  TIP3      H1            -16.0849667305       35.1878406755      -19.9174450000  TIP3      93              0.0000000000
       279        93  TIP3      H2            -17.4421183581       35.4485312311      -20.5355550000  TIP3      93              0.0000000000
       280        94  TIP3      OH2            13.1750080933       31.3458730449      -19.5888600000  TIP3      94              0.0000000000
       281        94  TIP3      H1             13.7082402672       30.5515443492      -19.6193200000  TIP3      94              0.0000000000
       282        94  TIP3      H2             12.2917654104       31.0345521174      -19.3909200000  TIP3      94              0.0000000000
       283        95  TIP3      OH2            15.4217490280       32.9135523763      -20.3939100000  TIP3      95              0.0000000000
       284        95  TIP3      H1             15.6287278697       32.1744542099      -20.9658600000  TIP3      95              0.0000000000
       285        95  TIP3      H2             14.6991392889       32.6007987027      -19.8496100000  TIP3      95              0.0000000000
       286        96  TIP3      OH2            14.8963923163       35.5794626214      -21.2913500000  TIP3      96              0.0000000000
       287        96  TIP3      H1             15.1439021998       35.3988192487      -20.3845200000  TIP3      96              0.0000000000
       288        96  TIP3      H2             15.0590217268       34.7568294919      -21.7529200000  TIP3      96              0.0000000000
       289        97  TIP3      OH2            35.3856323022       -9.4961767518      -19.2318200000  TIP3      97              0.0000000000
       290        97  TIP3      H1             35.6821004102       -9.5039545747      -20.1419200000  TIP3      97              0.0000000000
       291        97  TIP3      H2             34.7416090907       -8.7889813497      -19.1952600000  TIP3      97              0.0000000000
       292        98  TIP3      OH2            20.0511512631       34.0215883855      -20.0587200000  TIP3      98              0.0000000000
       293        98  TIP3      H1             20.6017732091       33.4278935184      -19.5482600000  TIP3      98              0.0000000000
       294        98  TIP3      H2             19.6702510617       33.4686750593      -20.7409500000  TIP3      98              0.0000000000
       295        99  TIP3      OH2            31.3572793046      -26.8627226138      -19.8488700000  TIP3      99              0.0000000000
       296        99  TIP3      H1             31.4981016035      -26.1901388757      -19.1825200000  TIP3      99              0.0000000000
       297        99  TIP3      H2             30.4759762683      -26.6910353541      -20.1806400000  TIP3      99              0.0000000000
       298       100  TIP3      OH2            33.2475654710      -22.4240666763      -20.9994500000  TIP3      100             0.0000000000
       299       100  TIP3      H1             33.1455698505      -22.9337020408      -20.1956500000  TIP3      100             0.0000000000
       300       100  TIP3      H2             32.7840096101      -21.6050192929      -20.8247500000  TIP3      100             0.0000000000
       301       101  TIP3      OH2            29.6749625459      -24.2582391158      -18.9372500000  TIP3      101             0.0000000000
       302       101  TIP3      H1             29.2465523870      -24.7885670655      -19.6091500000  TIP3      101             0.0000000000
       303       101  TIP3      H2             28.9585133380      -23.9479299176      -18.3834900000  TIP3      101             0.0000000000
       304       102  TIP3      OH2           -21.7146618523       36.2065834730      -21.5215550000  TIP3      102             0.0000000000
       305       102  TIP3      H1            -21.8274867245       36.6462588464      -20.6788250000  TIP3      102             0.0000000000
       306       102  TIP3      H2            -20.8076373649       35.9008761700      -21.5132150000  TIP3      102             0.0000000000
       307       103  TIP3      OH2           -24.3615485795       34.0824105742      -19.5182950000  TIP3      103             0.0000000000
       308       103  TIP3      H1            -24.4603694005       33.1975847182      -19.8697950000  TIP3      103             0.0000000000
       309       103  TIP3      H2            -25.2342940777       34.3130094849      -19.1999050000  TIP3      103             0.0000000000
       310       104  TIP3      OH2           -30.6229853434      -37.2634260068      -20.3109850000  TIP3      104             0.0000000000
       311       104  TIP3      H1            -30.1506872869      -36.9987138929      -21.1003450000  TIP3      104             0.0000000000
       312       104  TIP3      H2            -30.4327365517      -36.5739074073      -19.6748950000  TIP3      104             0.0000000000
       313       105  TIP3      OH2           -30.1756892608      -32.2251699857      -20.1584550000  TIP3      105             0.0000000000
       314       105  TIP3      H1            -30.4284083171      -32.8046045634      -20.8772250000  TIP3      105             0.0000000000
       315       105  TIP3      H2            -29.4427399378      -31.7171101336      -20.5061450000  TIP3      105             0.0000000000
       316       106  TIP3      OH2            35.4690049890       37.0890751751      -20.6452600000  TIP3      106             0.0000000000
       317       106  TIP3      H1             35.8460307046       36.5110728217      -19.9819300000  TIP3      106             0.0000000000
       318       106  TIP3      H2             34.5362139813       37.1216848125      -20.4329700000  TIP3      106             0.0000000000
